
     Program PWSCF v.7.4 starts on 27May2025 at 19:11:11 

     This program is part of the open-source Quantum ESPRESSO suite
     for quantum simulation of materials; please cite
         "P. Giannozzi et al., J. Phys.:Condens. Matter 21 395502 (2009);
         "P. Giannozzi et al., J. Phys.:Condens. Matter 29 465901 (2017);
         "P. Giannozzi et al., J. Chem. Phys. 152 154105 (2020);
          URL http://www.quantum-espresso.org", 
     in publications or presentations arising from this work. More details at
     http://www.quantum-espresso.org/quote

     Parallel version (MPI & OpenMP), running on      32 processor cores
     Number of MPI processes:                 4
     Threads/MPI process:                     8

     MPI processes distributed on     1 nodes
     12524 MiB available memory on the printing compute node when the environment starts

     Reading input from espresso.pwi
Warning: card &CELL ignored
Warning: card / ignored
Warning: card &FCP ignored
Warning: card / ignored
Warning: card &RISM ignored
Warning: card / ignored

     Current dimensions of program PWSCF are:
     Max number of different atomic species (ntypx) = 10
     Max number of k-points (npk) =  40000
     Max angular momentum in pseudopotentials (lmaxx) =  4
     Found identity + (  0.2500 -0.2500  0.0000) symmetry
     This is a supercell, fractional translations are disabled
     Message from routine setup:
     using ibrav=0 with symmetry is DISCOURAGED, use correct ibrav instead

     R & G space division:  proc/nbgrp/npool/nimage =       4
     Subspace diagonalization in iterative solution of the eigenvalue problem:
     one sub-group per band group will be used
     ELPA distributed-memory algorithm (size of sub-group:  2*  2 procs)


     Parallelization info
     --------------------
     sticks:   dense  smooth     PW     G-vecs:    dense   smooth      PW
     Min        1617     808    214               304693   107646   14710
     Max        1618     809    216               304700   107653   14712
     Sum        6469    3233    861              1218783   430593   58843

     Using Slab Decomposition



     bravais-lattice index     =            0
     lattice parameter (alat)  =      15.9202  a.u.
     unit-cell volume          =   12605.4251 (a.u.)^3
     number of atoms/cell      =           64
     number of atomic types    =            2
     number of electrons       =       544.00
     number of Kohn-Sham states=          272
     kinetic-energy cutoff     =      40.0000  Ry
     charge density cutoff     =     320.0000  Ry
     scf convergence threshold =      1.0E-07
     mixing beta               =       0.7000
     number of iterations used =            8  plain     mixing
     Exchange-correlation=  SLA  PW   PBX  PBC
                           (   1   4   3   4   0   0   0)

     celldm(1)=  15.920220  celldm(2)=   0.000000  celldm(3)=   0.000000
     celldm(4)=   0.000000  celldm(5)=   0.000000  celldm(6)=   0.000000

     crystal axes: (cart. coord. in units of alat)
               a(1) = (   1.000000   0.000000   0.000000 )  
               a(2) = (   0.000000   1.000000   0.000000 )  
               a(3) = (   0.000000   0.000000   3.123995 )  

     reciprocal axes: (cart. coord. in units 2 pi/alat)
               b(1) = (  1.000000  0.000000  0.000000 )  
               b(2) = (  0.000000  1.000000  0.000000 )  
               b(3) = (  0.000000  0.000000  0.320103 )  


     PseudoPot. # 1 for N  read from file:
     /home/ameerracle/Tr_Metals_QE/pseudo_dir/N.pbe-n-radius_5.UPF
     MD5 check sum: 16739722b17309cd8fe442a2ace49922
     Pseudo is Ultrasoft + core correction, Zval =  5.0
     Generated using "atomic" code by A. Dal Corso  v.5.1
     Using radial grid of 1085 points,  4 beta functions with: 
                l(1) =   0
                l(2) =   0
                l(3) =   1
                l(4) =   1
     Q(r) pseudized with 0 coefficients 


     PseudoPot. # 2 for Ti read from file:
     /home/ameerracle/Tr_Metals_QE/pseudo_dir/ti_pbe_v1.4.uspp.F.UPF
     MD5 check sum: 88a00a6731bd790ddea75d31a80cb452
     Pseudo is Ultrasoft + core correction, Zval = 12.0
     Generated by new atomic code, or converted to UPF format
     Using radial grid of  851 points,  6 beta functions with: 
                l(1) =   0
                l(2) =   0
                l(3) =   1
                l(4) =   1
                l(5) =   2
                l(6) =   2
     Q(r) pseudized with  6 coefficients,  rinner =    1.000   1.000   1.000
                                                       1.000   1.000

     atomic species   valence    mass     pseudopotential
     N                 5.00    14.00700     N ( 1.00)
     Ti               12.00    47.86700     Ti( 1.00)

      8 Sym. Ops. (no inversion) found



   Cartesian axes

     site n.     atom                  positions (alat units)
         1        N      tau(   1) = (   0.0000000   0.2500000   1.1869975  )
         2        N      tau(   2) = (   0.0000000   0.0000000   1.4369975  )
         3        N      tau(   3) = (   0.2500000   0.0000000   1.1869975  )
         4        N      tau(   4) = (   0.2500000   0.2500000   1.4369975  )
         5        Ti     tau(   5) = (   0.0000000   0.0000000   1.1869975  )
         6        Ti     tau(   6) = (   0.2500000   0.0000000   1.4369975  )
         7        Ti     tau(   7) = (   0.0000000   0.2500000   1.4369975  )
         8        Ti     tau(   8) = (   0.2500000   0.2500000   1.1869975  )
         9        N      tau(   9) = (   0.0000000   0.2500000   1.6869975  )
        10        N      tau(  10) = (   0.0000000   0.0000000   1.9369975  )
        11        N      tau(  11) = (   0.2500000   0.0000000   1.6869975  )
        12        N      tau(  12) = (   0.2500000   0.2500000   1.9369975  )
        13        Ti     tau(  13) = (   0.0000000   0.0000000   1.6869975  )
        14        Ti     tau(  14) = (   0.2500000   0.0000000   1.9369975  )
        15        Ti     tau(  15) = (   0.0000000   0.2500000   1.9369975  )
        16        Ti     tau(  16) = (   0.2500000   0.2500000   1.6869975  )
        17        N      tau(  17) = (   0.0000000   0.7500000   1.1869975  )
        18        N      tau(  18) = (   0.0000000   0.5000000   1.4369975  )
        19        N      tau(  19) = (   0.2500000   0.5000000   1.1869975  )
        20        N      tau(  20) = (   0.2500000   0.7500000   1.4369975  )
        21        Ti     tau(  21) = (   0.0000000   0.5000000   1.1869975  )
        22        Ti     tau(  22) = (   0.2500000   0.5000000   1.4369975  )
        23        Ti     tau(  23) = (   0.0000000   0.7500000   1.4369975  )
        24        Ti     tau(  24) = (   0.2500000   0.7500000   1.1869975  )
        25        N      tau(  25) = (   0.0000000   0.7500000   1.6869975  )
        26        N      tau(  26) = (   0.0000000   0.5000000   1.9369975  )
        27        N      tau(  27) = (   0.2500000   0.5000000   1.6869975  )
        28        N      tau(  28) = (   0.2500000   0.7500000   1.9369975  )
        29        Ti     tau(  29) = (   0.0000000   0.5000000   1.6869975  )
        30        Ti     tau(  30) = (   0.2500000   0.5000000   1.9369975  )
        31        Ti     tau(  31) = (   0.0000000   0.7500000   1.9369975  )
        32        Ti     tau(  32) = (   0.2500000   0.7500000   1.6869975  )
        33        N      tau(  33) = (   0.5000000   0.2500000   1.1869975  )
        34        N      tau(  34) = (   0.5000000   0.0000000   1.4369975  )
        35        N      tau(  35) = (   0.7500000   0.0000000   1.1869975  )
        36        N      tau(  36) = (   0.7500000   0.2500000   1.4369975  )
        37        Ti     tau(  37) = (   0.5000000   0.0000000   1.1869975  )
        38        Ti     tau(  38) = (   0.7500000   0.0000000   1.4369975  )
        39        Ti     tau(  39) = (   0.5000000   0.2500000   1.4369975  )
        40        Ti     tau(  40) = (   0.7500000   0.2500000   1.1869975  )
        41        N      tau(  41) = (   0.5000000   0.2500000   1.6869975  )
        42        N      tau(  42) = (   0.5000000   0.0000000   1.9369975  )
        43        N      tau(  43) = (   0.7500000   0.0000000   1.6869975  )
        44        N      tau(  44) = (   0.7500000   0.2500000   1.9369975  )
        45        Ti     tau(  45) = (   0.5000000   0.0000000   1.6869975  )
        46        Ti     tau(  46) = (   0.7500000   0.0000000   1.9369975  )
        47        Ti     tau(  47) = (   0.5000000   0.2500000   1.9369975  )
        48        Ti     tau(  48) = (   0.7500000   0.2500000   1.6869975  )
        49        N      tau(  49) = (   0.5000000   0.7500000   1.1869975  )
        50        N      tau(  50) = (   0.5000000   0.5000000   1.4369975  )
        51        N      tau(  51) = (   0.7500000   0.5000000   1.1869975  )
        52        N      tau(  52) = (   0.7500000   0.7500000   1.4369975  )
        53        Ti     tau(  53) = (   0.5000000   0.5000000   1.1869975  )
        54        Ti     tau(  54) = (   0.7500000   0.5000000   1.4369975  )
        55        Ti     tau(  55) = (   0.5000000   0.7500000   1.4369975  )
        56        Ti     tau(  56) = (   0.7500000   0.7500000   1.1869975  )
        57        N      tau(  57) = (   0.5000000   0.7500000   1.6869975  )
        58        N      tau(  58) = (   0.5000000   0.5000000   1.9369975  )
        59        N      tau(  59) = (   0.7500000   0.5000000   1.6869975  )
        60        N      tau(  60) = (   0.7500000   0.7500000   1.9369975  )
        61        Ti     tau(  61) = (   0.5000000   0.5000000   1.6869975  )
        62        Ti     tau(  62) = (   0.7500000   0.5000000   1.9369975  )
        63        Ti     tau(  63) = (   0.5000000   0.7500000   1.9369975  )
        64        Ti     tau(  64) = (   0.7500000   0.7500000   1.6869975  )

     number of k points=     3
                       cart. coord. in units 2pi/alat
        k(    1) = (   0.0000000   0.0000000   0.0000000), wk =   0.2222222
        k(    2) = (   0.0000000   0.3333333   0.0000000), wk =   0.8888889
        k(    3) = (   0.3333333   0.3333333   0.0000000), wk =   0.8888889

     Dense  grid:  1218783 G-vectors     FFT dimensions: (  96,  96, 288)

     Smooth grid:   430593 G-vectors     FFT dimensions: (  72,  72, 216)

     Estimated max dynamical RAM per process >       1.55 GB

     Estimated total dynamical RAM >       6.21 GB

     Check: negative core charge=   -0.000007

     Initial potential from superposition of free atoms

     starting charge     511.9984, renormalised to     544.0000

     negative rho (up, down):  5.784E-02 0.000E+00
     Starting wfcs are  448 randomized atomic wfcs
