
     Program PWSCF v.7.4 starts on 30May2025 at 21:55:34 

     This program is part of the open-source Quantum ESPRESSO suite
     for quantum simulation of materials; please cite
         "P. Giannozzi et al., J. Phys.:Condens. Matter 21 395502 (2009);
         "P. Giannozzi et al., J. Phys.:Condens. Matter 29 465901 (2017);
         "P. Giannozzi et al., J. Chem. Phys. 152 154105 (2020);
          URL http://www.quantum-espresso.org", 
     in publications or presentations arising from this work. More details at
     http://www.quantum-espresso.org/quote

     Parallel version (MPI & OpenMP), running on      40 processor cores
     Number of MPI processes:                40
     Threads/MPI process:                     1

     MPI processes distributed on     1 nodes
     9107 MiB available memory on the printing compute node when the environment starts

     Reading input from espresso.pwi
Warning: card &CELL ignored
Warning: card / ignored
Warning: card &FCP ignored
Warning: card / ignored
Warning: card &RISM ignored
Warning: card / ignored

     Current dimensions of program PWSCF are:
     Max number of different atomic species (ntypx) = 10
     Max number of k-points (npk) =  40000
     Max angular momentum in pseudopotentials (lmaxx) =  4

     IMPORTANT: XC functional enforced from input :
     Exchange-correlation= PBE
                           (   1   4   3   4   0   0   0)
     Any further DFT definition will be discarded
     Please, verify this is what you really want

     Found identity + (  0.2500 -0.2500  0.0000) symmetry
     This is a supercell, fractional translations are disabled
     Message from routine setup:
     using ibrav=0 with symmetry is DISCOURAGED, use correct ibrav instead

     R & G space division:  proc/nbgrp/npool/nimage =      40
     Subspace diagonalization in iterative solution of the eigenvalue problem:
     one sub-group per band group will be used
     ELPA distributed-memory algorithm (size of sub-group:  3*  3 procs)


     Parallelization info
     --------------------
     sticks:   dense  smooth     PW     G-vecs:    dense   smooth      PW
     Min         189      94     24                39701    14034    1890
     Max         190      95     25                39720    14053    1909
     Sum        7589    3793    997              1588471   561647   76039

     Using Slab Decomposition



     bravais-lattice index     =            0
     lattice parameter (alat)  =      15.4320  a.u.
     unit-cell volume          =   11757.0291 (a.u.)^3
     number of atoms/cell      =           64
     number of atomic types    =            2
     number of electrons       =       576.00
     number of Kohn-Sham states=          288
     kinetic-energy cutoff     =      50.0000  Ry
     charge density cutoff     =     400.0000  Ry
     scf convergence threshold =      1.0E-06
     mixing beta               =       0.4000
     number of iterations used =            8  TF        mixing
     Exchange-correlation= PBE
                           (   1   4   3   4   0   0   0)

     celldm(1)=  15.432048  celldm(2)=   0.000000  celldm(3)=   0.000000
     celldm(4)=   0.000000  celldm(5)=   0.000000  celldm(6)=   0.000000

     crystal axes: (cart. coord. in units of alat)
               a(1) = (   1.000000   0.000000   0.000000 )  
               a(2) = (   0.000000   1.000000   0.000000 )  
               a(3) = (   0.000000   0.000000   3.199093 )  

     reciprocal axes: (cart. coord. in units 2 pi/alat)
               b(1) = (  1.000000  0.000000  0.000000 )  
               b(2) = (  0.000000  1.000000  0.000000 )  
               b(3) = (  0.000000  0.000000  0.312589 )  


     PseudoPot. # 1 for N  read from file:
     /nfs/home/a/a_nizami/pseudo_dir/N.pbe-n-radius_5.UPF
     MD5 check sum: 16739722b17309cd8fe442a2ace49922
     Pseudo is Ultrasoft + core correction, Zval =  5.0
     Generated using "atomic" code by A. Dal Corso  v.5.1
     Using radial grid of 1085 points,  4 beta functions with: 
                l(1) =   0
                l(2) =   0
                l(3) =   1
                l(4) =   1
     Q(r) pseudized with 0 coefficients 


     PseudoPot. # 2 for V  read from file:
     /nfs/home/a/a_nizami/pseudo_dir/v_pbe_v1.4.uspp.F.UPF
     MD5 check sum: 22b79981416ebb76fdaf5b1b8640f6fb
     Pseudo is Ultrasoft + core correction, Zval = 13.0
     Generated by new atomic code, or converted to UPF format
     Using radial grid of  853 points,  6 beta functions with: 
                l(1) =   0
                l(2) =   0
                l(3) =   1
                l(4) =   1
                l(5) =   2
                l(6) =   2
     Q(r) pseudized with  8 coefficients,  rinner =    1.100   1.100   1.100
                                                       1.100   1.100

     atomic species   valence    mass     pseudopotential
     N                 5.00    14.00700     N ( 1.00)
     V                13.00    50.94150     V ( 1.00)

      8 Sym. Ops. (no inversion) found



   Cartesian axes

     site n.     atom                  positions (alat units)
         1        N      tau(   1) = (   0.0000000   0.2500000   1.2245465  )
         2        N      tau(   2) = (   0.0000000   0.0000000   1.4745465  )
         3        N      tau(   3) = (   0.2500000   0.0000000   1.2245465  )
         4        N      tau(   4) = (   0.2500000   0.2500000   1.4745465  )
         5        V      tau(   5) = (   0.0000000   0.0000000   1.2245465  )
         6        V      tau(   6) = (   0.2500000   0.0000000   1.4745465  )
         7        V      tau(   7) = (   0.0000000   0.2500000   1.4745465  )
         8        V      tau(   8) = (   0.2500000   0.2500000   1.2245465  )
         9        N      tau(   9) = (   0.0000000   0.2500000   1.7245465  )
        10        N      tau(  10) = (   0.0000000   0.0000000   1.9745465  )
        11        N      tau(  11) = (   0.2500000   0.0000000   1.7245465  )
        12        N      tau(  12) = (   0.2500000   0.2500000   1.9745465  )
        13        V      tau(  13) = (   0.0000000   0.0000000   1.7245465  )
        14        V      tau(  14) = (   0.2500000   0.0000000   1.9745465  )
        15        V      tau(  15) = (   0.0000000   0.2500000   1.9745465  )
        16        V      tau(  16) = (   0.2500000   0.2500000   1.7245465  )
        17        N      tau(  17) = (   0.0000000   0.7500000   1.2245465  )
        18        N      tau(  18) = (   0.0000000   0.5000000   1.4745465  )
        19        N      tau(  19) = (   0.2500000   0.5000000   1.2245465  )
        20        N      tau(  20) = (   0.2500000   0.7500000   1.4745465  )
        21        V      tau(  21) = (   0.0000000   0.5000000   1.2245465  )
        22        V      tau(  22) = (   0.2500000   0.5000000   1.4745465  )
        23        V      tau(  23) = (   0.0000000   0.7500000   1.4745465  )
        24        V      tau(  24) = (   0.2500000   0.7500000   1.2245465  )
        25        N      tau(  25) = (   0.0000000   0.7500000   1.7245465  )
        26        N      tau(  26) = (   0.0000000   0.5000000   1.9745465  )
        27        N      tau(  27) = (   0.2500000   0.5000000   1.7245465  )
        28        N      tau(  28) = (   0.2500000   0.7500000   1.9745465  )
        29        V      tau(  29) = (   0.0000000   0.5000000   1.7245465  )
        30        V      tau(  30) = (   0.2500000   0.5000000   1.9745465  )
        31        V      tau(  31) = (   0.0000000   0.7500000   1.9745465  )
        32        V      tau(  32) = (   0.2500000   0.7500000   1.7245465  )
        33        N      tau(  33) = (   0.5000000   0.2500000   1.2245465  )
        34        N      tau(  34) = (   0.5000000   0.0000000   1.4745465  )
        35        N      tau(  35) = (   0.7500000   0.0000000   1.2245465  )
        36        N      tau(  36) = (   0.7500000   0.2500000   1.4745465  )
        37        V      tau(  37) = (   0.5000000   0.0000000   1.2245465  )
        38        V      tau(  38) = (   0.7500000   0.0000000   1.4745465  )
        39        V      tau(  39) = (   0.5000000   0.2500000   1.4745465  )
        40        V      tau(  40) = (   0.7500000   0.2500000   1.2245465  )
        41        N      tau(  41) = (   0.5000000   0.2500000   1.7245465  )
        42        N      tau(  42) = (   0.5000000   0.0000000   1.9745465  )
        43        N      tau(  43) = (   0.7500000   0.0000000   1.7245465  )
        44        N      tau(  44) = (   0.7500000   0.2500000   1.9745465  )
        45        V      tau(  45) = (   0.5000000   0.0000000   1.7245465  )
        46        V      tau(  46) = (   0.7500000   0.0000000   1.9745465  )
        47        V      tau(  47) = (   0.5000000   0.2500000   1.9745465  )
        48        V      tau(  48) = (   0.7500000   0.2500000   1.7245465  )
        49        N      tau(  49) = (   0.5000000   0.7500000   1.2245465  )
        50        N      tau(  50) = (   0.5000000   0.5000000   1.4745465  )
        51        N      tau(  51) = (   0.7500000   0.5000000   1.2245465  )
        52        N      tau(  52) = (   0.7500000   0.7500000   1.4745465  )
        53        V      tau(  53) = (   0.5000000   0.5000000   1.2245465  )
        54        V      tau(  54) = (   0.7500000   0.5000000   1.4745465  )
        55        V      tau(  55) = (   0.5000000   0.7500000   1.4745465  )
        56        V      tau(  56) = (   0.7500000   0.7500000   1.2245465  )
        57        N      tau(  57) = (   0.5000000   0.7500000   1.7245465  )
        58        N      tau(  58) = (   0.5000000   0.5000000   1.9745465  )
        59        N      tau(  59) = (   0.7500000   0.5000000   1.7245465  )
        60        N      tau(  60) = (   0.7500000   0.7500000   1.9745465  )
        61        V      tau(  61) = (   0.5000000   0.5000000   1.7245465  )
        62        V      tau(  62) = (   0.7500000   0.5000000   1.9745465  )
        63        V      tau(  63) = (   0.5000000   0.7500000   1.9745465  )
        64        V      tau(  64) = (   0.7500000   0.7500000   1.7245465  )

     --------------------------------------------
     DFT-D3 Dispersion Correction (3-body terms):
     --------------------------------------------
       Reference C6 values for interpolation: 

         atom   Coordination number   C6
         N          0.000            50.54
         N          0.994            44.25
         N          2.014            39.35
         N          2.990            31.16
         V          0.000          2232.20
         V          1.914           580.29
         V          2.911           538.67

       Values used:

         atom   Coordination number  R0_AB[au]  C6      C8
         N          5.017            2.478     31.16    687.49
         N          6.068            2.478     31.16    687.49
         N          5.017            2.478     31.16    687.49
         N          6.068            2.478     31.16    687.49
         V         12.152            3.516    538.67  59684.75
         V         16.685            3.516    538.67  59684.75
         V         16.685            3.516    538.67  59684.75
         V         12.152            3.516    538.67  59684.75
         N          6.068            2.478     31.16    687.49
         N          5.017            2.478     31.16    687.49
         N          6.068            2.478     31.16    687.49
         N          5.017            2.478     31.16    687.49
         V         16.685            3.516    538.67  59684.75
         V         12.152            3.516    538.67  59684.75
         V         12.152            3.516    538.67  59684.75
         V         16.685            3.516    538.67  59684.75
         N          5.017            2.478     31.16    687.49
         N          6.068            2.478     31.16    687.49
         N          5.017            2.478     31.16    687.49
         N          6.068            2.478     31.16    687.49
         V         12.152            3.516    538.67  59684.75
         V         16.685            3.516    538.67  59684.75
         V         16.685            3.516    538.67  59684.75
         V         12.152            3.516    538.67  59684.75
         N          6.068            2.478     31.16    687.49
         N          5.017            2.478     31.16    687.49
         N          6.068            2.478     31.16    687.49
         N          5.017            2.478     31.16    687.49
         V         16.685            3.516    538.67  59684.75
         V         12.152            3.516    538.67  59684.75
         V         12.152            3.516    538.67  59684.75
         V         16.685            3.516    538.67  59684.75
         N          5.017            2.478     31.16    687.49
         N          6.068            2.478     31.16    687.49
         N          5.017            2.478     31.16    687.49
         N          6.068            2.478     31.16    687.49
         V         12.152            3.516    538.67  59684.75
         V         16.685            3.516    538.67  59684.75
         V         16.685            3.516    538.67  59684.75
         V         12.152            3.516    538.67  59684.75
         N          6.068            2.478     31.16    687.49
         N          5.017            2.478     31.16    687.49
         N          6.068            2.478     31.16    687.49
         N          5.017            2.478     31.16    687.49
         V         16.685            3.516    538.67  59684.75
         V         12.152            3.516    538.67  59684.75
         V         12.152            3.516    538.67  59684.75
         V         16.685            3.516    538.67  59684.75
         N          5.017            2.478     31.16    687.49
         N          6.068            2.478     31.16    687.49
         N          5.017            2.478     31.16    687.49
         N          6.068            2.478     31.16    687.49
         V         12.152            3.516    538.67  59684.75
         V         16.685            3.516    538.67  59684.75
         V         16.685            3.516    538.67  59684.75
         V         12.152            3.516    538.67  59684.75
         N          6.068            2.478     31.16    687.49
         N          5.017            2.478     31.16    687.49
         N          6.068            2.478     31.16    687.49
         N          5.017            2.478     31.16    687.49
         V         16.685            3.516    538.67  59684.75
         V         12.152            3.516    538.67  59684.75
         V         12.152            3.516    538.67  59684.75
         V         16.685            3.516    538.67  59684.75

         Molecular C6 ( Ry / a.u.^6 ) =    832478.00


     number of k points=     3
                       cart. coord. in units 2pi/alat
        k(    1) = (   0.0000000   0.0000000   0.0000000), wk =   0.2222222
        k(    2) = (   0.0000000   0.3333333   0.0000000), wk =   0.8888889
        k(    3) = (   0.3333333   0.3333333   0.0000000), wk =   0.8888889

     Dense  grid:  1588471 G-vectors     FFT dimensions: ( 100, 100, 320)

     Smooth grid:   561647 G-vectors     FFT dimensions: (  72,  72, 225)

     Estimated max dynamical RAM per process >     211.40 MB

     Estimated total dynamical RAM >       8.26 GB

     Check: negative core charge=   -0.000002

     Initial potential from superposition of free atoms

     starting charge     575.9605, renormalised to     576.0000

     negative rho (up, down):  3.207E-02 0.000E+00
     Starting wfcs are  448 randomized atomic wfcs

     total cpu time spent up to now is       10.2 secs

     per-process dynamical memory:   122.0 Mb

     Self-consistent Calculation

     iteration #  1     ecut=    50.00 Ry     beta= 0.40
     Davidson diagonalization with overlap
                                                                                                                                                                                                                                                                                                                                                                                                                                                                                                                                                                                                                                                                                                                                                                                                                                                                                                                                                                                                                                                                                                                                                                                                                                                                                                                                                                                                                                                                                                                                                                                                                                                                                                                                                                                                                                                                                                                                                                                                                                                                                                                                                                                                                                                                                                                                                                                                                                                                                                                                                                                                                                                                                                                                                                                                                                                                                                                                                                                                                                                                                                                                                                                                                                                                                                                                                                                                                                                                                                                                                                                                                                                                                                                                                                                                                                                                                                                                                                                                                                                                                                                                                                                                                                                                                                                                                                                                                                                                                                                                                                                                                                                                                                                                                                                                                                                                                                                                                                                                                                                                                                                                                                                                                                                                                                                                                                                                                                                                                                                                                                                                                                                                                                                                                                                                                                                                                                                                                                                                                                                                                                                                                                                                                                                                                                                                                                                                                                                                                                                                                                                                                                                                                                                                                                                                                                                                                                                                                                                                                                                                                                                                                                                                                                                                                                                                                                                                                                                                                                                                                                                                                                                                                                                                                                                                                                                                                                                                                                                                                                                                                                                                                                                                                                                                                                                                                                                                                                                                                                                                                                                                                                                                                                                                                                                                                                                                                                                                                                                                                                                                                                                                                                                                                                                                                                                                                                                                                                                                                                                                                                                                                                                                                                                                                                                                                                                                                                                                                                                                                                                                                                                                                                                                                                                                                                                                                                                                                                                                                                                                                                                                                                                                                                                                                                                                                                                                                                                                                                                                                                                                                                                                                                                                                                                                                                                                                                                                                                                                                                                                                                                                                                                                                                                                                                                                                                                                                                                                                                                                                                                                                                                                                                                                                                                                                                                                                                                                                                                                                                                                                                                                                                                                                                                                                                                                                                                                                                                                                                                                                                                                                                                                                                                                                                                                                                             8E-01 0.000E+00

     total cpu time spent up to now is      443.8 secs

     total energy              =   -4470.77979811 Ry
     estimated scf accuracy    <       0.02104981 Ry

     iteration # 36     ecut=    45.00 Ry     beta= 0.40
     Davidson diagonalization with overlap
     ethr =  3.87E-06,  avg # of iterations = 13.0

     negative rho (up, down):  1.260E-01 0.000E+00

     total cpu time spent up to now is      462.7 secs

     total energy              =   -4470.77555931 Ry
     estimated scf accuracy    <       0.11649342 Ry

     iteration # 37     ecut=    45.00 Ry     beta= 0.40
     Davidson diagonalization with overlap
     ethr =  3.87E-06,  avg # of iterations =  7.3

     negative rho (up, down):  1.178E-01 0.000E+00

     total cpu time spent up to now is      477.9 secs

     total energy              =   -4470.78189639 Ry
     estimated scf accuracy    <       0.00999094 Ry

     iteration # 38     ecut=    45.00 Ry     beta= 0.40
     Davidson diagonalization with overlap
     ethr =  1.84E-06,  avg # of iterations = 10.7

     negative rho (up, down):  1.497E-01 0.000E+00

     total cpu time spent up to now is      490.9 secs

     total energy              =   -4470.78263276 Ry
     estimated scf accuracy    <       0.01346957 Ry

     iteration # 39     ecut=    45.00 Ry     beta= 0.40
     Davidson diagonalization with overlap
     ethr =  1.84E-06,  avg # of iterations =  2.0

     negative rho (up, down):  1.502E-01 0.000E+00

     total cpu time spent up to now is      500.5 secs

     total energy              =   -4470.78203334 Ry
     estimated scf accuracy    <       0.01137902 Ry

     iteration # 40     ecut=    45.00 Ry     beta= 0.40
     Davidson diagonalization with overlap
     ethr =  1.84E-06,  avg # of iterations =  5.7

     negative rho (up, down):  1.192E-01 0.000E+00

     total cpu time spent up to now is      511.7 secs

     total energy              =   -4470.78194829 Ry
     estimated scf accuracy    <       0.00494275 Ry

     iteration # 41     ecut=    45.00 Ry     beta= 0.40
     Davidson diagonalization with overlap
     ethr =  9.09E-07,  avg # of iterations = 10.0

     negative rho (up, down):  1.283E-01 0.000E+00

     total cpu time spent up to now is      528.5 secs

     total energy              =   -4470.78052992 Ry
     estimated scf accuracy    <       0.02206621 Ry

     iteration # 42     ecut=    45.00 Ry     beta= 0.40
     Davidson diagonalization with overlap
     ethr =  9.09E-07,  avg # of iterations =  8.0

     negative rho (up, down):  1.282E-01 0.000E+00

     total cpu time spent up to now is      544.3 secs

     total energy              =   -4470.78217650 Ry
     estimated scf accuracy    <       0.00457221 Ry

     iteration # 43     ecut=    45.00 Ry     beta= 0.40
     Davidson diagonalization with overlap
     ethr =  8.40E-07,  avg # of iterations =  1.0

     negative rho (up, down):  1.200E-01 0.000E+00

     total cpu time spent up to now is      553.1 secs

     total energy              =   -4470.78199896 Ry
     estimated scf accuracy    <       0.00451775 Ry

     iteration # 44     ecut=    45.00 Ry     beta= 0.40
     Davidson diagonalization with overlap
     ethr =  8.30E-07,  avg # of iterations =  4.3

     negative rho (up, down):  7.837E-02 0.000E+00

     total cpu time spent up to now is      563.5 secs

     total energy              =   -4470.78045263 Ry
     estimated scf accuracy    <       0.00415751 Ry

     iteration # 45     ecut=    45.00 Ry     beta= 0.40
     Davidson diagonalization with overlap
     ethr =  7.64E-07,  avg # of iterations = 12.7

     negative rho (up, down):  7.460E-02 0.000E+00

     total cpu time spent up to now is      578.4 secs

     total energy              =   -4470.78120927 Ry
     estimated scf accuracy    <       0.01813761 Ry

     iteration # 46     ecut=    45.00 Ry     beta= 0.40
     Davidson diagonalization with overlap
     ethr =  7.64E-07,  avg # of iterations =  1.7

     negative rho (up, down):  1.008E-01 0.000E+00

     total cpu time spent up to now is      589.8 secs

     total energy              =   -4470.77983664 Ry
     estimated scf accuracy    <       0.01849205 Ry

     iteration # 47     ecut=    45.00 Ry     beta= 0.40
     Davidson diagonalization with overlap
     ethr =  7.64E-07,  avg # of iterations = 13.0

     negative rho (up, down):  9.792E-02 0.000E+00

     total cpu time spent up to now is      604.7 secs

     total energy              =   -4470.78057895 Ry
     estimated scf accuracy    <       0.00713849 Ry

     iteration # 48     ecut=    45.00 Ry     beta= 0.40
     Davidson diagonalization with overlap
     ethr =  7.64E-07,  avg # of iterations =  5.3

     negative rho (up, down):  1.003E-01 0.000E+00

     total cpu time spent up to now is      615.6 secs

     total energy              =   -4470.77926072 Ry
     estimated scf accuracy    <       0.00507987 Ry

     iteration # 49     ecut=    45.00 Ry     beta= 0.40
     Davidson diagonalization with overlap
     ethr =  7.64E-07,  avg # of iterations = 13.0

     negative rho (up, down):  1.074E-01 0.000E+00

     total cpu time spent up to now is      632.7 secs

     total energy              =   -4470.78067550 Ry
     estimated scf accuracy    <       0.02012205 Ry

     iteration # 50     ecut=    45.00 Ry     beta= 0.40
     Davidson diagonalization with overlap
     ethr =  7.64E-07,  avg # of iterations =  2.3

     negative rho (up, down):  1.012E-01 0.000E+00

     total cpu time spent up to now is      642.6 secs

     total energy              =   -4470.78039427 Ry
     estimated scf accuracy    <       0.01771475 Ry

     iteration # 51     ecut=    45.00 Ry     beta= 0.40
     Davidson diagonalization with overlap
     ethr =  7.64E-07,  avg # of iterations =  3.0

     negative rho (up, down):  1.051E-01 0.000E+00

     total cpu time spent up to now is      652.6 secs

     total energy              =   -4470.78150528 Ry
     estimated scf accuracy    <       0.01532874 Ry

     iteration # 52     ecut=    45.00 Ry     beta= 0.40
     Davidson diagonalization with overlap
     ethr =  7.64E-07,  avg # of iterations =  3.3

     negative rho (up, down):  1.123E-01 0.000E+00

     total cpu time spent up to now is      662.6 secs

     total energy              =   -4470.78052887 Ry
     estimated scf accuracy    <       0.02143193 Ry

     iteration # 53     ecut=    45.00 Ry     beta= 0.40
     Davidson diagonalization with overlap
     ethr =  7.64E-07,  avg # of iterations =  4.7

     negative rho (up, down):  1.085E-01 0.000E+00

     total cpu time spent up to now is      673.1 secs

     total energy              =   -4470.77954420 Ry
     estimated scf accuracy    <       0.01446939 Ry

     iteration # 54     ecut=    45.00 Ry     beta= 0.40
     Davidson diagonalization with overlap
     ethr =  7.64E-07,  avg # of iterations = 13.3

     negative rho (up, down):  1.025E-01 0.000E+00

     total cpu time spent up to now is      688.8 secs

     total energy              =   -4470.78014039 Ry
     estimated scf accuracy    <       0.00395990 Ry

     iteration # 55     ecut=    45.00 Ry     beta= 0.40
     Davidson diagonalization with overlap
     ethr =  7.28E-07,  avg # of iterations =  7.0

     negative rho (up, down):  8.936E-02 0.000E+00

     total cpu time spent up to now is      700.5 secs

     total energy              =   -4470.77962930 Ry
     estimated scf accuracy    <       0.00270998 Ry

     iteration # 56     ecut=    45.00 Ry     beta= 0.40
     Davidson diagonalization with overlap
     ethr =  4.98E-07,  avg # of iterations = 15.7

     negative rho (up, down):  8.906E-02 0.000E+00

     total cpu time spent up to now is      716.4 secs

     total energy              =   -4470.78069070 Ry
     estimated scf accuracy    <       0.01314565 Ry

     iteration # 57     ecut=    45.00 Ry     beta= 0.40
     Davidson diagonalization with overlap
     ethr =  4.98E-07,  avg # of iterations =  9.0

     negative rho (up, down):  6.967E-02 0.000E+00

     total cpu time spent up to now is      730.3 secs

     total energy              =   -4470.78008235 Ry
     estimated scf accuracy    <       0.02851839 Ry

     iteration # 58     ecut=    45.00 Ry     beta= 0.40
     Davidson diagonalization with overlap
     ethr =  4.98E-07,  avg # of iterations = 10.0

     negative rho (up, down):  5.237E-02 0.000E+00

     total cpu time spent up to now is      742.8 secs

     total energy              =   -4470.77913214 Ry
     estimated scf accuracy    <       0.01827511 Ry

     iteration # 59     ecut=    45.00 Ry     beta= 0.40
     Davidson diagonalization with overlap
     ethr =  4.98E-07,  avg # of iterations = 12.7

     negative rho (up, down):  4.989E-02 0.000E+00

     total cpu time spent up to now is      756.5 secs

     total energy              =   -4470.77862769 Ry
     estimated scf accuracy    <       0.01060776 Ry

     iteration # 60     ecut=    45.00 Ry     beta= 0.40
     Davidson diagonalization with overlap
     ethr =  4.98E-07,  avg # of iterations =  6.0

     negative rho (up, down):  6.542E-02 0.000E+00

     total cpu time spent up to now is      767.9 secs

     total energy              =   -4470.77855986 Ry
     estimated scf accuracy    <       0.00380251 Ry

     iteration # 61     ecut=    45.00 Ry     beta= 0.40
     Davidson diagonalization with overlap
     ethr =  4.98E-07,  avg # of iterations =  8.3

     negative rho (up, down):  6.198E-02 0.000E+00

     total cpu time spent up to now is      781.0 secs

     total energy              =   -4470.77895756 Ry
     estimated scf accuracy    <       0.00146426 Ry

     iteration # 62     ecut=    45.00 Ry     beta= 0.40
     Davidson diagonalization with overlap
     ethr =  2.69E-07,  avg # of iterations =  2.7

     negative rho (up, down):  5.100E-02 0.000E+00

     total cpu time spent up to now is      791.2 secs

     total energy              =   -4470.77889608 Ry
     estimated scf accuracy    <       0.00117174 Ry

     iteration # 63     ecut=    45.00 Ry     beta= 0.40
     Davidson diagonalization with overlap
     ethr =  2.15E-07,  avg # of iterations =  9.3

     negative rho (up, down):  5.872E-02 0.000E+00

     total cpu time spent up to now is      804.7 secs

     total energy              =   -4470.77912411 Ry
     estimated scf accuracy    <       0.00154491 Ry

     iteration # 64     ecut=    45.00 Ry     beta= 0.40
     Davidson diagonalization with overlap
     ethr =  2.15E-07,  avg # of iterations =  5.0

     negative rho (up, down):  6.364E-02 0.000E+00

     total cpu time spent up to now is      815.5 secs

     total energy              =   -4470.77909321 Ry
     estimated scf accuracy    <       0.00087271 Ry

     iteration # 65     ecut=    45.00 Ry     beta= 0.40
     Davidson diagonalization with overlap
     ethr =  1.60E-07,  avg # of iterations =  8.7

     negative rho (up, down):  5.804E-02 0.000E+00

     total cpu time spent up to now is      828.3 secs

     total energy              =   -4470.77919121 Ry
     estimated scf accuracy    <       0.00049628 Ry

     iteration # 66     ecut=    45.00 Ry     beta= 0.40
     Davidson diagonalization with overlap
     ethr =  9.12E-08,  avg # of iterations =  7.0

     negative rho (up, down):  5.476E-02 0.000E+00

     total cpu time spent up to now is      840.1 secs

     total energy              =   -4470.77926047 Ry
     estimated scf accuracy    <       0.00014473 Ry

     iteration # 67     ecut=    45.00 Ry     beta= 0.40
     Davidson diagonalization with overlap
     ethr =  2.66E-08,  avg # of iterations =  4.7

     negative rho (up, down):  4.782E-02 0.000E+00

     total cpu time spent up to now is      850.7 secs

     total energy              =   -4470.77924705 Ry
     estimated scf accuracy    <       0.00013107 Ry

     iteration # 68     ecut=    45.00 Ry     beta= 0.40
     Davidson diagonalization with overlap
     ethr =  2.41E-08,  avg # of iterations =  5.7

     negative rho (up, down):  4.427E-02 0.000E+00

     total cpu time spent up to now is      861.9 secs

     total energy              =   -4470.77922963 Ry
     estimated scf accuracy    <       0.00005838 Ry

     iteration # 69     ecut=    45.00 Ry     beta= 0.40
     Davidson diagonalization with overlap
     c_bands:  3 eigenvalues not converged
     ethr =  1.07E-08,  avg # of iterations = 16.7

     negative rho (up, down):  4.343E-02 0.000E+00

     total cpu time spent up to now is      876.7 secs

     total energy              =   -4470.77952430 Ry
     estimated scf accuracy    <       0.01633811 Ry

     iteration # 70     ecut=    45.00 Ry     beta= 0.40
     Davidson diagonalization with overlap
     c_bands:  1 eigenvalues not converged
     ethr =  1.07E-08,  avg # of iterations =  9.0

     negative rho (up, down):  4.352E-02 0.000E+00

     total cpu time spent up to now is      888.6 secs

     total energy              =   -4470.78133092 Ry
     estimated scf accuracy    <       0.02126391 Ry

     iteration # 71     ecut=    45.00 Ry     beta= 0.40
     Davidson diagonalization with overlap
     c_bands:  1 eigenvalues not converged
     ethr =  1.07E-08,  avg # of iterations =  7.3

     negative rho (up, down):  4.320E-02 0.000E+00

     total cpu time spent up to now is      899.2 secs

     total energy              =   -4470.78142968 Ry
     estimated scf accuracy    <       0.02411166 Ry

     iteration # 72     ecut=    45.00 Ry     beta= 0.40
     Davidson diagonalization with overlap
     c_bands:  1 eigenvalues not converged
     ethr =  1.07E-08,  avg # of iterations =  8.0

     negative rho (up, down):  4.253E-02 0.000E+00

     total cpu time spent up to now is      910.8 secs

     total energy              =   -4470.78147128 Ry
     estimated scf accuracy    <       0.02407689 Ry

     iteration # 73     ecut=    45.00 Ry     beta= 0.40
     Davidson diagonalization with overlap
     c_bands:  1 eigenvalues not converged
     ethr =  1.07E-08,  avg # of iterations =  8.3

     negative rho (up, down):  3.867E-02 0.000E+00

     total cpu time spent up to now is      921.9 secs

     total energy              =   -4470.78153857 Ry
     estimated scf accuracy    <       0.02429165 Ry

     iteration # 74     ecut=    45.00 Ry     beta= 0.40
     Davidson diagonalization with overlap
     c_bands:  1 eigenvalues not converged
     ethr =  1.07E-08,  avg # of iterations = 11.0

     negative rho (up, down):  4.012E-02 0.000E+00

     total cpu time spent up to now is      934.6 secs

     total energy              =   -4470.78159893 Ry
     estimated scf accuracy    <       0.02486288 Ry

     iteration # 75     ecut=    45.00 Ry     beta= 0.40
     Davidson diagonalization with overlap
     c_bands:  1 eigenvalues not converged
     ethr =  1.07E-08,  avg # of iterations =  8.3

     negative rho (up, down):  3.887E-02 0.000E+00

     total cpu time spent up to now is      946.0 secs

     total energy              =   -4470.78156754 Ry
     estimated scf accuracy    <       0.02527176 Ry

     iteration # 76     ecut=    45.00 Ry     beta= 0.40
     Davidson diagonalization with overlap
     ethr =  1.07E-08,  avg # of iterations =  7.3

     negative rho (up, down):  4.059E-02 0.000E+00

     total cpu time spent up to now is      956.9 secs

     total energy              =   -4470.78153756 Ry
     estimated scf accuracy    <       0.02515341 Ry

     iteration # 77     ecut=    45.00 Ry     beta= 0.40
     Davidson diagonalization with overlap
     ethr =  1.07E-08,  avg # of iterations =  6.0

     negative rho (up, down):  3.392E-02 0.000E+00

     total cpu time spent up to now is      968.0 secs

     total energy              =   -4470.78129326 Ry
     estimated scf accuracy    <       0.02493750 Ry

     iteration # 78     ecut=    45.00 Ry     beta= 0.40
     Davidson diagonalization with overlap
     c_bands:  1 eigenvalues not converged
     c_bands:  3 eigenvalues not converged
     c_bands:  4 eigenvalues not converged
     ethr =  1.07E-08,  avg # of iterations = 20.0

     negative rho (up, down):  3.504E-02 0.000E+00

     total cpu time spent up to now is      995.2 secs

     total energy              =   -4470.78126951 Ry
     estimated scf accuracy    <       0.02910731 Ry

     iteration # 79     ecut=    45.00 Ry     beta= 0.40
     Davidson diagonalization with overlap
     c_bands:  1 eigenvalues not converged
     c_bands:  1 eigenvalues not converged
     ethr =  1.07E-08,  avg # of iterations = 19.7

     negative rho (up, down):  8.720E-02 0.000E+00

     total cpu time spent up to now is     1015.5 secs

     total energy              =   -4470.77609430 Ry
     estimated scf accuracy    <       0.02717109 Ry

     iteration # 80     ecut=    45.00 Ry     beta= 0.40
     Davidson diagonalization with overlap
     c_bands:  3 eigenvalues not converged
     c_bands:  3 eigenvalues not converged
     c_bands:  5 eigenvalues not converged
     ethr =  1.07E-08,  avg # of iterations = 33.3

     negative rho (up, down):  5.672E-02 0.000E+00

     total cpu time spent up to now is     1058.1 secs

     total energy              =   -4470.78123696 Ry
     estimated scf accuracy    <       0.28028847 Ry

     iteration # 81     ecut=    45.00 Ry     beta= 0.40
     Davidson diagonalization with overlap
     c_bands:  2 eigenvalues not converged
     c_bands:  2 eigenvalues not converged
     c_bands:  4 eigenvalues not converged
     ethr =  1.07E-08,  avg # of iterations = 40.0

     negative rho (up, down):  5.075E-02 0.000E+00

     total cpu time spent up to now is     1103.0 secs

     total energy              =   -4470.78237037 Ry
     estimated scf accuracy    <       0.13610777 Ry

     iteration # 82     ecut=    45.00 Ry     beta= 0.40
     Davidson diagonalization with overlap
     c_bands:  1 eigenvalues not converged
     c_bands:  3 eigenvalues not converged
     ethr =  1.07E-08,  avg # of iterations = 18.7

     negative rho (up, down):  5.126E-02 0.000E+00

     total cpu time spent up to now is     1126.0 secs

     total energy              =   -4470.78065231 Ry
     estimated scf accuracy    <       0.10784438 Ry

     iteration # 83     ecut=    45.00 Ry     beta= 0.40
     Davidson diagonalization with overlap
     c_bands:  4 eigenvalues not converged
     ethr =  1.07E-08,  avg # of iterations = 19.0

     negative rho (up, down):  5.041E-02 0.000E+00

     total cpu time spent up to now is     1151.2 secs

     total energy              =   -4470.78118486 Ry
     estimated scf accuracy    <       0.02705544 Ry

     iteration # 84     ecut=    45.00 Ry     beta= 0.40
     Davidson diagonalization with overlap
     c_bands:  2 eigenvalues not converged
     c_bands:  5 eigenvalues not converged
     ethr =  1.07E-08,  avg # of iterations = 19.0

     negative rho (up, down):  3.509E-02 0.000E+00

     total cpu time spent up to now is     1174.3 secs

     total energy              =   -4470.78176063 Ry
     estimated scf accuracy    <       0.01482998 Ry

     iteration # 85     ecut=    45.00 Ry     beta= 0.40
     Davidson diagonalization with overlap
     c_bands:  2 eigenvalues not converged
     ethr =  1.07E-08,  avg # of iterations = 14.3

     negative rho (up, down):  4.799E-02 0.000E+00

     total cpu time spent up to now is     1192.7 secs

     total energy              =   -4470.78219257 Ry
     estimated scf accuracy    <       0.00879983 Ry

     iteration # 86     ecut=    45.00 Ry     beta= 0.40
     Davidson diagonalization with overlap
     c_bands:  3 eigenvalues not converged
     ethr =  1.07E-08,  avg # of iterations = 15.7

     negative rho (up, down):  3.188E-02 0.000E+00

     total cpu time spent up to now is     1213.6 secs

     total energy              =   -4470.78250599 Ry
     estimated scf accuracy    <       0.00908639 Ry

     iteration # 87     ecut=    45.00 Ry     beta= 0.40
     Davidson diagonalization with overlap
     c_bands:  3 eigenvalues not converged
     ethr =  1.07E-08,  avg # of iterations = 18.7

     negative rho (up, down):  3.765E-02 0.000E+00

     total cpu time spent up to now is     1236.9 secs

     total energy              =   -4470.78337339 Ry
     estimated scf accuracy    <       0.01746837 Ry

     iteration # 88     ecut=    45.00 Ry     beta= 0.40
     Davidson diagonalization with overlap
     c_bands:  1 eigenvalues not converged
     ethr =  1.07E-08,  avg # of iterations = 13.0

     negative rho (up, down):  7.798E-02 0.000E+00

     total cpu time spent up to now is     1251.5 secs

     total energy              =   -4470.78420022 Ry
     estimated scf accuracy    <       0.01854665 Ry

     iteration # 89     ecut=    45.00 Ry     beta= 0.40
     Davidson diagonalization with overlap
     c_bands:  3 eigenvalues not converged
     c_bands:  1 eigenvalues not converged
     c_bands:  5 eigenvalues not converged
     ethr =  1.07E-08,  avg # of iterations = 20.0

     negative rho (up, down):  5.756E-02 0.000E+00

     total cpu time spent up to now is     1278.6 secs

     total energy              =   -4470.78281295 Ry
     estimated scf accuracy    <       0.02670137 Ry

     iteration # 90     ecut=    45.00 Ry     beta= 0.40
     Davidson diagonalization with overlap
     c_bands:  2 eigenvalues not converged
     c_bands:  4 eigenvalues not converged
     ethr =  1.07E-08,  avg # of iterations = 19.7

     negative rho (up, down):  5.358E-02 0.000E+00

     total cpu time spent up to now is     1304.6 secs

     total energy              =   -4470.78164312 Ry
     estimated scf accuracy    <       0.01426156 Ry

     iteration # 91     ecut=    45.00 Ry     beta= 0.40
     Davidson diagonalization with overlap
     c_bands:  2 eigenvalues not converged
     c_bands:  2 eigenvalues not converged
     ethr =  1.07E-08,  avg # of iterations = 20.0

     negative rho (up, down):  5.189E-02 0.000E+00

     total cpu time spent up to now is     1332.1 secs

     total energy              =   -4470.78115867 Ry
     estimated scf accuracy    <       0.00471092 Ry

     iteration # 92     ecut=    45.00 Ry     beta= 0.40
     Davidson diagonalization with overlap
     c_bands:  3 eigenvalues not converged
     c_bands:  3 eigenvalues not converged
     ethr =  1.07E-08,  avg # of iterations = 19.7

     negative rho (up, down):  4.965E-02 0.000E+00

     total cpu time spent up to now is     1358.6 secs

     total energy              =   -4470.78085101 Ry
     estimated scf accuracy    <       0.00614434 Ry

     iteration # 93     ecut=    45.00 Ry     beta= 0.40
     Davidson diagonalization with overlap
     c_bands:  3 eigenvalues not converged
     c_bands:  2 eigenvalues not converged
     c_bands:  2 eigenvalues not converged
     ethr =  1.07E-08,  avg # of iterations = 20.0

     negative rho (up, down):  5.125E-02 0.000E+00

     total cpu time spent up to now is     1385.6 secs

     total energy              =   -4470.78204396 Ry
     estimated scf accuracy    <       0.00229095 Ry

     iteration # 94     ecut=    45.00 Ry     beta= 0.40
     Davidson diagonalization with overlap
     c_bands:  1 eigenvalues not converged
     c_bands:  1 eigenvalues not converged
     ethr =  1.07E-08,  avg # of iterations = 19.3

     negative rho (up, down):  4.570E-02 0.000E+00

     total cpu time spent up to now is     1407.4 secs

     total energy              =   -4470.78173125 Ry
     estimated scf accuracy    <       0.00208868 Ry

     iteration # 95     ecut=    45.00 Ry     beta= 0.40
     Davidson diagonalization with overlap
     c_bands:  1 eigenvalues not converged
     c_bands:  1 eigenvalues not converged
     ethr =  1.07E-08,  avg # of iterations = 19.0

     negative rho (up, down):  4.619E-02 0.000E+00

     total cpu time spent up to now is     1430.2 secs

     total energy              =   -4470.78177902 Ry
     estimated scf accuracy    <       0.00055319 Ry

     iteration # 96     ecut=    45.00 Ry     beta= 0.40
     Davidson diagonalization with overlap
     c_bands:  1 eigenvalues not converged
     ethr =  1.07E-08,  avg # of iterations = 12.7

     negative rho (up, down):  4.733E-02 0.000E+00

     total cpu time spent up to now is     1445.7 secs

     total energy              =   -4470.78189039 Ry
     estimated scf accuracy    <       0.00031579 Ry

     iteration # 97     ecut=    45.00 Ry     beta= 0.40
     Davidson diagonalization with overlap
     ethr =  1.07E-08,  avg # of iterations = 12.0

     negative rho (up, down):  4.782E-02 0.000E+00

     total cpu time spent up to now is     1459.2 secs

     total energy              =   -4470.78192105 Ry
     estimated scf accuracy    <       0.00017675 Ry

     iteration # 98     ecut=    45.00 Ry     beta= 0.40
     Davidson diagonalization with overlap
     c_bands:  1 eigenvalues not converged
     ethr =  1.07E-08,  avg # of iterations = 12.0

     negative rho (up, down):  4.762E-02 0.000E+00

     total cpu time spent up to now is     1472.4 secs

     total energy              =   -4470.78193164 Ry
     estimated scf accuracy    <       0.00044211 Ry

     iteration # 99     ecut=    45.00 Ry     beta= 0.40
     Davidson diagonalization with overlap
     c_bands:  1 eigenvalues not converged
     ethr =  1.07E-08,  avg # of iterations =  7.3

     negative rho (up, down):  4.725E-02 0.000E+00

     total cpu time spent up to now is     1483.0 secs

     total energy              =   -4470.78192275 Ry
     estimated scf accuracy    <       0.00043570 Ry

     iteration #100     ecut=    45.00 Ry     beta= 0.40
     Davidson diagonalization with overlap
     ethr =  1.07E-08,  avg # of iterations =  5.3

     negative rho (up, down):  4.553E-02 0.000E+00

     total cpu time spent up to now is     1494.0 secs

     total energy              =   -4470.78185555 Ry
     estimated scf accuracy    <       0.00036056 Ry

     iteration #101     ecut=    45.00 Ry     beta= 0.40
     Davidson diagonalization with overlap
     c_bands:  1 eigenvalues not converged
     ethr =  1.07E-08,  avg # of iterations = 16.3

     negative rho (up, down):  4.598E-02 0.000E+00

     total cpu time spent up to now is     1513.5 secs

     total energy              =   -4470.78190518 Ry
     estimated scf accuracy    <       0.00119485 Ry

     iteration #102     ecut=    45.00 Ry     beta= 0.40
     Davidson diagonalization with overlap
     c_bands:  1 eigenvalues not converged
     ethr =  1.07E-08,  avg # of iterations = 15.0

     negative rho (up, down):  4.637E-02 0.000E+00

     total cpu time spent up to now is     1527.8 secs

     total energy              =   -4470.78180451 Ry
     estimated scf accuracy    <       0.00073015 Ry

     iteration #103     ecut=    45.00 Ry     beta= 0.40
     Davidson diagonalization with overlap
     c_bands:  2 eigenvalues not converged
     ethr =  1.07E-08,  avg # of iterations = 14.0

     negative rho (up, down):  4.541E-02 0.000E+00

     total cpu time spent up to now is     1545.8 secs

     total energy              =   -4470.78184145 Ry
     estimated scf accuracy    <       0.00014097 Ry

     iteration #104     ecut=    45.00 Ry     beta= 0.40
     Davidson diagonalization with overlap
     c_bands:  1 eigenvalues not converged
     ethr =  1.07E-08,  avg # of iterations = 12.7

     negative rho (up, down):  4.497E-02 0.000E+00

     total cpu time spent up to now is     1559.6 secs

     total energy              =   -4470.78179812 Ry
     estimated scf accuracy    <       0.00030590 Ry

     iteration #105     ecut=    45.00 Ry     beta= 0.40
     Davidson diagonalization with overlap
     c_bands:  1 eigenvalues not converged
     ethr =  1.07E-08,  avg # of iterations = 12.3

     negative rho (up, down):  4.365E-02 0.000E+00

     total cpu time spent up to now is     1572.7 secs

     total energy              =   -4470.78178522 Ry
     estimated scf accuracy    <       0.00009818 Ry

     iteration #106     ecut=    45.00 Ry     beta= 0.40
     Davidson diagonalization with overlap
     c_bands:  1 eigenvalues not converged
     ethr =  1.07E-08,  avg # of iterations =  9.7

     negative rho (up, down):  4.254E-02 0.000E+00

     total cpu time spent up to now is     1584.2 secs

     total energy              =   -4470.78177612 Ry
     estimated scf accuracy    <       0.00007971 Ry

     iteration #107     ecut=    45.00 Ry     beta= 0.40
     Davidson diagonalization with overlap
     c_bands:  1 eigenvalues not converged
     ethr =  1.07E-08,  avg # of iterations = 14.7

     negative rho (up, down):  4.059E-02 0.000E+00

     total cpu time spent up to now is     1598.0 secs

     total energy              =   -4470.78180953 Ry
     estimated scf accuracy    <       0.00006970 Ry

     iteration #108     ecut=    45.00 Ry     beta= 0.40
     Davidson diagonalization with overlap
     c_bands:  1 eigenvalues not converged
     ethr =  1.07E-08,  avg # of iterations = 11.7

     negative rho (up, down):  3.617E-02 0.000E+00

     total cpu time spent up to now is     1611.0 secs

     total energy              =   -4470.78187629 Ry
     estimated scf accuracy    <       0.00005387 Ry

     iteration #109     ecut=    45.00 Ry     beta= 0.40
     Davidson diagonalization with overlap
     c_bands:  1 eigenvalues not converged
     ethr =  9.90E-09,  avg # of iterations =  9.3

     negative rho (up, down):  3.329E-02 0.000E+00

     total cpu time spent up to now is     1623.0 secs

     total energy              =   -4470.78192424 Ry
     estimated scf accuracy    <       0.00002818 Ry

     iteration #110     ecut=    45.00 Ry     beta= 0.40
     Davidson diagonalization with overlap
     c_bands:  1 eigenvalues not converged
     c_bands:  1 eigenvalues not converged
     ethr =  5.18E-09,  avg # of iterations = 16.3

     negative rho (up, down):  3.334E-02 0.000E+00

     total cpu time spent up to now is     1639.8 secs

     total energy              =   -4470.78194189 Ry
     estimated scf accuracy    <       0.00013260 Ry

     iteration #111     ecut=    45.00 Ry     beta= 0.40
     Davidson diagonalization with overlap
     c_bands:  2 eigenvalues not converged
     c_bands:  1 eigenvalues not converged
     ethr =  5.18E-09,  avg # of iterations = 13.7

     negative rho (up, down):  3.335E-02 0.000E+00

     total cpu time spent up to now is     1653.2 secs

     total energy              =   -4470.78195770 Ry
     estimated scf accuracy    <       0.00016037 Ry

     iteration #112     ecut=    45.00 Ry     beta= 0.40
     Davidson diagonalization with overlap
     c_bands:  1 eigenvalues not converged
     c_bands:  1 eigenvalues not converged
     ethr =  5.18E-09,  avg # of iterations = 13.7

     negative rho (up, down):  3.329E-02 0.000E+00

     total cpu time spent up to now is     1665.8 secs

     total energy              =   -4470.78196265 Ry
     estimated scf accuracy    <       0.00019197 Ry

     iteration #113     ecut=    45.00 Ry     beta= 0.40
     Davidson diagonalization with overlap
     c_bands:  1 eigenvalues not converged
     ethr =  5.18E-09,  avg # of iterations = 16.7

     negative rho (up, down):  3.301E-02 0.000E+00

     total cpu time spent up to now is     1680.2 secs

     total energy              =   -4470.78196976 Ry
     estimated scf accuracy    <       0.00016370 Ry

     iteration #114     ecut=    45.00 Ry     beta= 0.40
     Davidson diagonalization with overlap
     c_bands:  1 eigenvalues not converged
     ethr =  5.18E-09,  avg # of iterations = 10.0

     negative rho (up, down):  3.208E-02 0.000E+00

     total cpu time spent up to now is     1692.4 secs

     total energy              =   -4470.78198855 Ry
     estimated scf accuracy    <       0.00017570 Ry

     iteration #115     ecut=    45.00 Ry     beta= 0.40
     Davidson diagonalization with overlap
     c_bands:  1 eigenvalues not converged
     c_bands:  1 eigenvalues not converged
     ethr =  5.18E-09,  avg # of iterations = 17.3

     negative rho (up, down):  3.212E-02 0.000E+00

     total cpu time spent up to now is     1711.0 secs

     total energy              =   -4470.78202000 Ry
     estimated scf accuracy    <       0.00105460 Ry

     iteration #116     ecut=    45.00 Ry     beta= 0.40
     Davidson diagonalization with overlap
     c_bands:  1 eigenvalues not converged
     c_bands:  1 eigenvalues not converged
     ethr =  5.18E-09,  avg # of iterations = 15.3

     negative rho (up, down):  3.247E-02 0.000E+00

     total cpu time spent up to now is     1724.9 secs

     total energy              =   -4470.78204469 Ry
     estimated scf accuracy    <       0.00087751 Ry

     iteration #117     ecut=    45.00 Ry     beta= 0.40
     Davidson diagonalization with overlap
     c_bands:  1 eigenvalues not converged
     c_bands:  1 eigenvalues not converged
     ethr =  5.18E-09,  avg # of iterations = 15.0

     negative rho (up, down):  3.330E-02 0.000E+00

     total cpu time spent up to now is     1738.3 secs

     total energy              =   -4470.78200832 Ry
     estimated scf accuracy    <       0.00101179 Ry

     iteration #118     ecut=    45.00 Ry     beta= 0.40
     Davidson diagonalization with overlap
     ethr =  5.18E-09,  avg # of iterations = 12.0

     negative rho (up, down):  3.259E-02 0.000E+00

     total cpu time spent up to now is     1750.6 secs

     total energy              =   -4470.78203641 Ry
     estimated scf accuracy    <       0.00092614 Ry

     iteration #119     ecut=    45.00 Ry     beta= 0.40
     Davidson diagonalization with overlap
     c_bands:  3 eigenvalues not converged
     ethr =  5.18E-09,  avg # of iterations = 14.7

     negative rho (up, down):  3.299E-02 0.000E+00

     total cpu time spent up to now is     1767.3 secs

     total energy              =   -4470.78205007 Ry
     estimated scf accuracy    <       0.00109208 Ry

     iteration #120     ecut=    45.00 Ry     beta= 0.40
     Davidson diagonalization with overlap
     ethr =  5.18E-09,  avg # of iterations = 12.3

     negative rho (up, down):  3.219E-02 0.000E+00

     total cpu time spent up to now is     1780.6 secs

     total energy              =   -4470.78206738 Ry
     estimated scf accuracy    <       0.00115146 Ry

     iteration #121     ecut=    45.00 Ry     beta= 0.40
     Davidson diagonalization with overlap
     c_bands:  2 eigenvalues not converged
     ethr =  5.18E-09,  avg # of iterations = 13.0

     negative rho (up, down):  3.202E-02 0.000E+00

     total cpu time spent up to now is     1795.4 secs

     total energy              =   -4470.78210644 Ry
     estimated scf accuracy    <       0.00113216 Ry

     iteration #122     ecut=    45.00 Ry     beta= 0.40
     Davidson diagonalization with overlap
     ethr =  5.18E-09,  avg # of iterations = 12.7

     negative rho (up, down):  3.220E-02 0.000E+00

     total cpu time spent up to now is     1809.7 secs

     total energy              =   -4470.78205854 Ry
     estimated scf accuracy    <       0.00139870 Ry

     iteration #123     ecut=    45.00 Ry     beta= 0.40
     Davidson diagonalization with overlap
     ethr =  5.18E-09,  avg # of iterations = 10.0

     negative rho (up, down):  3.396E-02 0.000E+00

     total cpu time spent up to now is     1822.2 secs

     total energy              =   -4470.78178087 Ry
     estimated scf accuracy    <       0.00101144 Ry

     iteration #124     ecut=    45.00 Ry     beta= 0.40
     Davidson diagonalization with overlap
     c_bands:  2 eigenvalues not converged
     c_bands:  1 eigenvalues not converged
     ethr =  5.18E-09,  avg # of iterations = 20.0

     negative rho (up, down):  3.389E-02 0.000E+00

     total cpu time spent up to now is     1848.5 secs

     total energy              =   -4470.78191918 Ry
     estimated scf accuracy    <       0.00029133 Ry

     iteration #125     ecut=    45.00 Ry     beta= 0.40
     Davidson diagonalization with overlap
     c_bands:  1 eigenvalues not converged
     ethr =  5.18E-09,  avg # of iterations = 18.0

     negative rho (up, down):  3.375E-02 0.000E+00

     total cpu time spent up to now is     1867.9 secs

     total energy              =   -4470.78194261 Ry
     estimated scf accuracy    <       0.00002211 Ry

     iteration #126     ecut=    45.00 Ry     beta= 0.40
     Davidson diagonalization with overlap
     c_bands:  1 eigenvalues not converged
     ethr =  4.06E-09,  avg # of iterations = 11.0

     negative rho (up, down):  3.371E-02 0.000E+00

     total cpu time spent up to now is     1880.1 secs

     total energy              =   -4470.78194669 Ry
     estimated scf accuracy    <       0.00000628 Ry

     iteration #127     ecut=    45.00 Ry     beta= 0.40
     Davidson diagonalization with overlap
     c_bands:  1 eigenvalues not converged
     c_bands:  1 eigenvalues not converged
     ethr =  1.15E-09,  avg # of iterations = 17.3

     negative rho (up, down):  3.339E-02 0.000E+00

     total cpu time spent up to now is     1896.1 secs

     total energy              =   -4470.78201070 Ry
     estimated scf accuracy    <       0.00111407 Ry

     iteration #128     ecut=    45.00 Ry     beta= 0.40
     Davidson diagonalization with overlap
     c_bands:  1 eigenvalues not converged
     c_bands:  1 eigenvalues not converged
     ethr =  1.15E-09,  avg # of iterations = 18.7

     negative rho (up, down):  3.311E-02 0.000E+00

     total cpu time spent up to now is     1915.4 secs

     total energy              =   -4470.78200044 Ry
     estimated scf accuracy    <       0.00077653 Ry

     iteration #129     ecut=    45.00 Ry     beta= 0.40
     Davidson diagonalization with overlap
     c_bands:  1 eigenvalues not converged
     ethr =  1.15E-09,  avg # of iterations = 18.3

     negative rho (up, down):  3.311E-02 0.000E+00

     total cpu time spent up to now is     1933.4 secs

     total energy              =   -4470.78200533 Ry
     estimated scf accuracy    <       0.00059857 Ry

     iteration #130     ecut=    45.00 Ry     beta= 0.40
     Davidson diagonalization with overlap
     c_bands:  1 eigenvalues not converged
     ethr =  1.15E-09,  avg # of iterations =  9.0

     negative rho (up, down):  3.307E-02 0.000E+00

     total cpu time spent up to now is     1944.8 secs

     total energy              =   -4470.78201679 Ry
     estimated scf accuracy    <       0.00058390 Ry

     iteration #131     ecut=    45.00 Ry     beta= 0.40
     Davidson diagonalization with overlap
     c_bands:  1 eigenvalues not converged
     ethr =  1.15E-09,  avg # of iterations = 10.3

     negative rho (up, down):  3.302E-02 0.000E+00

     total cpu time spent up to now is     1956.8 secs

     total energy              =   -4470.78201463 Ry
     estimated scf accuracy    <       0.00063098 Ry

     iteration #132     ecut=    45.00 Ry     beta= 0.40
     Davidson diagonalization with overlap
     ethr =  1.15E-09,  avg # of iterations =  6.0

     negative rho (up, down):  3.276E-02 0.000E+00

     total cpu time spent up to now is     1966.9 secs

     total energy              =   -4470.78200046 Ry
     estimated scf accuracy    <       0.00062653 Ry

     iteration #133     ecut=    45.00 Ry     beta= 0.40
     Davidson diagonalization with overlap
     ethr =  1.15E-09,  avg # of iterations =  8.0

     negative rho (up, down):  3.271E-02 0.000E+00

     total cpu time spent up to now is     1978.4 secs

     total energy              =   -4470.78199981 Ry
     estimated scf accuracy    <       0.00054227 Ry

     iteration #134     ecut=    45.00 Ry     beta= 0.40
     Davidson diagonalization with overlap
     ethr =  1.15E-09,  avg # of iterations =  2.0

     negative rho (up, down):  3.289E-02 0.000E+00

     total cpu time spent up to now is     1988.5 secs

     total energy              =   -4470.78200701 Ry
     estimated scf accuracy    <       0.00054009 Ry

     iteration #135     ecut=    45.00 Ry     beta= 0.40
     Davidson diagonalization with overlap
     ethr =  1.15E-09,  avg # of iterations =  4.7

     negative rho (up, down):  3.203E-02 0.000E+00

     total cpu time spent up to now is     1999.0 secs

     total energy              =   -4470.78191647 Ry
     estimated scf accuracy    <       0.00056174 Ry

     iteration #136     ecut=    45.00 Ry     beta= 0.40
     Davidson diagonalization with overlap
     c_bands:  1 eigenvalues not converged
     c_bands:  1 eigenvalues not converged
     c_bands:  3 eigenvalues not converged
     ethr =  1.15E-09,  avg # of iterations = 20.0

     negative rho (up, down):  3.253E-02 0.000E+00

     total cpu time spent up to now is     2025.4 secs

     total energy              =   -4470.78193483 Ry
     estimated scf accuracy    <       0.00041452 Ry

     iteration #137     ecut=    45.00 Ry     beta= 0.40
     Davidson diagonalization with overlap
     c_bands:  1 eigenvalues not converged
     c_bands:  1 eigenvalues not converged
     ethr =  1.15E-09,  avg # of iterations = 18.0

     negative rho (up, down):  3.228E-02 0.000E+00

     total cpu time spent up to now is     2048.3 secs

     total energy              =   -4470.78196108 Ry
     estimated scf accuracy    <       0.00047594 Ry

     iteration #138     ecut=    45.00 Ry     beta= 0.40
     Davidson diagonalization with overlap
     c_bands:  1 eigenvalues not converged
     c_bands:  1 eigenvalues not converged
     c_bands:  3 eigenvalues not converged
     ethr =  1.15E-09,  avg # of iterations = 20.0

     negative rho (up, down):  3.257E-02 0.000E+00

     total cpu time spent up to now is     2072.6 secs

     total energy              =   -4470.78196918 Ry
     estimated scf accuracy    <       0.00012016 Ry

     iteration #139     ecut=    45.00 Ry     beta= 0.40
     Davidson diagonalization with overlap
     c_bands:  1 eigenvalues not converged
     c_bands:  1 eigenvalues not converged
     ethr =  1.15E-09,  avg # of iterations = 17.7

     negative rho (up, down):  3.298E-02 0.000E+00

     total cpu time spent up to now is     2092.8 secs

     total energy              =   -4470.78197529 Ry
     estimated scf accuracy    <       0.00045548 Ry

     iteration #140     ecut=    45.00 Ry     beta= 0.40
     Davidson diagonalization with overlap
     c_bands:  1 eigenvalues not converged
     c_bands:  2 eigenvalues not converged
     ethr =  1.15E-09,  avg # of iterations = 17.0

     negative rho (up, down):  3.303E-02 0.000E+00

     total cpu time spent up to now is     2113.0 secs

     total energy              =   -4470.78197952 Ry
     estimated scf accuracy    <       0.00033850 Ry

     iteration #141     ecut=    45.00 Ry     beta= 0.40
     Davidson diagonalization with overlap
     c_bands:  1 eigenvalues not converged
     c_bands:  2 eigenvalues not converged
     ethr =  1.15E-09,  avg # of iterations = 18.7

     negative rho (up, down):  3.278E-02 0.000E+00

     total cpu time spent up to now is     2128.5 secs

     total energy              =   -4470.78197626 Ry
     estimated scf accuracy    <       0.00021784 Ry

     iteration #142     ecut=    45.00 Ry     beta= 0.40
     Davidson diagonalization with overlap
     c_bands:  1 eigenvalues not converged
     c_bands:  2 eigenvalues not converged
     ethr =  1.15E-09,  avg # of iterations = 17.7

     negative rho (up, down):  3.276E-02 0.000E+00

     total cpu time spent up to now is     2144.3 secs

     total energy              =   -4470.78198218 Ry
     estimated scf accuracy    <       0.00016513 Ry

     iteration #143     ecut=    45.00 Ry     beta= 0.40
     Davidson diagonalization with overlap
     c_bands:  1 eigenvalues not converged
     ethr =  1.15E-09,  avg # of iterations = 14.3

     negative rho (up, down):  3.250E-02 0.000E+00

     total cpu time spent up to now is     2157.8 secs

     total energy              =   -4470.78198081 Ry
     estimated scf accuracy    <       0.00013163 Ry

     iteration #144     ecut=    45.00 Ry     beta= 0.40
     Davidson diagonalization with overlap
     c_bands:  1 eigenvalues not converged
     ethr =  1.15E-09,  avg # of iterations = 12.0

     negative rho (up, down):  3.258E-02 0.000E+00

     total cpu time spent up to now is     2170.3 secs

     total energy              =   -4470.78198562 Ry
     estimated scf accuracy    <       0.00009938 Ry

     iteration #145     ecut=    45.00 Ry     beta= 0.40
     Davidson diagonalization with overlap
     c_bands:  1 eigenvalues not converged
     ethr =  1.15E-09,  avg # of iterations = 10.7

     negative rho (up, down):  3.263E-02 0.000E+00

     total cpu time spent up to now is     2182.4 secs

     total energy              =   -4470.78198718 Ry
     estimated scf accuracy    <       0.00011740 Ry

     iteration #146     ecut=    45.00 Ry     beta= 0.40
     Davidson diagonalization with overlap
     c_bands:  1 eigenvalues not converged
     ethr =  1.15E-09,  avg # of iterations =  8.7

     negative rho (up, down):  3.237E-02 0.000E+00

     total cpu time spent up to now is     2193.3 secs

     total energy              =   -4470.78198056 Ry
     estimated scf accuracy    <       0.00012452 Ry

     iteration #147     ecut=    45.00 Ry     beta= 0.40
     Davidson diagonalization with overlap
     c_bands:  1 eigenvalues not converged
     c_bands:  1 eigenvalues not converged
     ethr =  1.15E-09,  avg # of iterations = 15.3

     negative rho (up, down):  3.245E-02 0.000E+00

     total cpu time spent up to now is     2207.4 secs

     total energy              =   -4470.78196606 Ry
     estimated scf accuracy    <       0.00006844 Ry

     iteration #148     ecut=    45.00 Ry     beta= 0.40
     Davidson diagonalization with overlap
     c_bands:  1 eigenvalues not converged
     c_bands:  2 eigenvalues not converged
     ethr =  1.15E-09,  avg # of iterations = 20.0

     negative rho (up, down):  3.276E-02 0.000E+00

     total cpu time spent up to now is     2230.2 secs

     total energy              =   -4470.78197894 Ry
     estimated scf accuracy    <       0.00093025 Ry

     iteration #149     ecut=    45.00 Ry     beta= 0.40
     Davidson diagonalization with overlap
     c_bands:  1 eigenvalues not converged
     c_bands:  2 eigenvalues not converged
     ethr =  1.15E-09,  avg # of iterations = 19.0

     negative rho (up, down):  3.281E-02 0.000E+00

     total cpu time spent up to now is     2253.6 secs

     total energy              =   -4470.78199060 Ry
     estimated scf accuracy    <       0.00033739 Ry

     iteration #150     ecut=    45.00 Ry     beta= 0.40
     Davidson diagonalization with overlap
     ethr =  1.15E-09,  avg # of iterations =  3.7

     negative rho (up, down):  3.281E-02 0.000E+00

     total cpu time spent up to now is     2263.4 secs

     total energy              =   -4470.78198528 Ry
     estimated scf accuracy    <       0.00032307 Ry

     iteration #151     ecut=    45.00 Ry     beta= 0.40
     Davidson diagonalization with overlap
     ethr =  1.15E-09,  avg # of iterations = 10.0

     negative rho (up, down):  3.255E-02 0.000E+00

     total cpu time spent up to now is     2275.4 secs

     total energy              =   -4470.78198105 Ry
     estimated scf accuracy    <       0.00027506 Ry

     iteration #152     ecut=    45.00 Ry     beta= 0.40
     Davidson diagonalization with overlap
     ethr =  1.15E-09,  avg # of iterations = 11.7

     negative rho (up, down):  3.283E-02 0.000E+00

     total cpu time spent up to now is     2290.6 secs

     total energy              =   -4470.78195998 Ry
     estimated scf accuracy    <       0.00024529 Ry

     iteration #153     ecut=    45.00 Ry     beta= 0.40
     Davidson diagonalization with overlap
     c_bands:  1 eigenvalues not converged
     ethr =  1.15E-09,  avg # of iterations = 13.3

     negative rho (up, down):  3.297E-02 0.000E+00

     total cpu time spent up to now is     2307.5 secs

     total energy              =   -4470.78195958 Ry
     estimated scf accuracy    <       0.00007004 Ry

     iteration #154     ecut=    45.00 Ry     beta= 0.40
     Davidson diagonalization with overlap
     c_bands:  1 eigenvalues not converged
     ethr =  1.15E-09,  avg # of iterations = 14.3

     negative rho (up, down):  3.299E-02 0.000E+00

     total cpu time spent up to now is     2320.9 secs

     total energy              =   -4470.78195991 Ry
     estimated scf accuracy    <       0.00003265 Ry

     iteration #155     ecut=    45.00 Ry     beta= 0.40
     Davidson diagonalization with overlap
     c_bands:  1 eigenvalues not converged
     ethr =  1.15E-09,  avg # of iterations =  9.7

     negative rho (up, down):  3.300E-02 0.000E+00

     total cpu time spent up to now is     2332.4 secs

     total energy              =   -4470.78195967 Ry
     estimated scf accuracy    <       0.00002934 Ry

     iteration #156     ecut=    45.00 Ry     beta= 0.40
     Davidson diagonalization with overlap
     c_bands:  1 eigenvalues not converged
     ethr =  1.15E-09,  avg # of iterations =  9.0

     negative rho (up, down):  3.338E-02 0.000E+00

     total cpu time spent up to now is     2343.7 secs

     total energy              =   -4470.78195463 Ry
     estimated scf accuracy    <       0.00002460 Ry

     iteration #157     ecut=    45.00 Ry     beta= 0.40
     Davidson diagonalization with overlap
     c_bands:  1 eigenvalues not converged
     c_bands:  1 eigenvalues not converged
     ethr =  1.15E-09,  avg # of iterations = 19.0

     negative rho (up, down):  3.301E-02 0.000E+00

     total cpu time spent up to now is     2363.3 secs

     total energy              =   -4470.78203659 Ry
     estimated scf accuracy    <       0.00123254 Ry

     iteration #158     ecut=    45.00 Ry     beta= 0.40
     Davidson diagonalization with overlap
     c_bands:  1 eigenvalues not converged
     ethr =  1.15E-09,  avg # of iterations = 18.3

     negative rho (up, down):  3.296E-02 0.000E+00

     total cpu time spent up to now is     2380.2 secs

     total energy              =   -4470.78203430 Ry
     estimated scf accuracy    <       0.00088667 Ry

     iteration #159     ecut=    45.00 Ry     beta= 0.40
     Davidson diagonalization with overlap
     ethr =  1.15E-09,  avg # of iterations =  1.7

     negative rho (up, down):  3.299E-02 0.000E+00

     total cpu time spent up to now is     2389.5 secs

     total energy              =   -4470.78203947 Ry
     estimated scf accuracy    <       0.00085766 Ry

     iteration #160     ecut=    45.00 Ry     beta= 0.40
     Davidson diagonalization with overlap
     ethr =  1.15E-09,  avg # of iterations =  1.0

     negative rho (up, down):  3.300E-02 0.000E+00

     total cpu time spent up to now is     2398.1 secs

     total energy              =   -4470.78203962 Ry
     estimated scf accuracy    <       0.00086912 Ry

     iteration #161     ecut=    45.00 Ry     beta= 0.40
     Davidson diagonalization with overlap
     ethr =  1.15E-09,  avg # of iterations =  1.0

     negative rho (up, down):  3.300E-02 0.000E+00

     total cpu time spent up to now is     2407.4 secs

     total energy              =   -4470.78203741 Ry
     estimated scf accuracy    <       0.00086738 Ry

     iteration #162     ecut=    45.00 Ry     beta= 0.40
     Davidson diagonalization with overlap
     ethr =  1.15E-09,  avg # of iterations =  1.0

     negative rho (up, down):  3.301E-02 0.000E+00

     total cpu time spent up to now is     2416.2 secs

     total energy              =   -4470.78203665 Ry
     estimated scf accuracy    <       0.00085845 Ry

     iteration #163     ecut=    45.00 Ry     beta= 0.40
     Davidson diagonalization with overlap
     ethr =  1.15E-09,  avg # of iterations =  1.0

     negative rho (up, down):  3.295E-02 0.000E+00

     total cpu time spent up to now is     2424.8 secs

     total energy              =   -4470.78203039 Ry
     estimated scf accuracy    <       0.00085324 Ry

     iteration #164     ecut=    45.00 Ry     beta= 0.40
     Davidson diagonalization with overlap
     ethr =  1.15E-09,  avg # of iterations =  5.7

     negative rho (up, down):  3.296E-02 0.000E+00

     total cpu time spent up to now is     2436.0 secs

     total energy              =   -4470.78203234 Ry
     estimated scf accuracy    <       0.00080157 Ry

     iteration #165     ecut=    45.00 Ry     beta= 0.40
     Davidson diagonalization with overlap
     ethr =  1.15E-09,  avg # of iterations =  1.0

     negative rho (up, down):  3.347E-02 0.000E+00

     total cpu time spent up to now is     2444.6 secs

     total energy              =   -4470.78184744 Ry
     estimated scf accuracy    <       0.00080502 Ry

     iteration #166     ecut=    45.00 Ry     beta= 0.40
     Davidson diagonalization with overlap
     c_bands:  1 eigenvalues not converged
     c_bands:  1 eigenvalues not converged
     c_bands:  3 eigenvalues not converged
     ethr =  1.15E-09,  avg # of iterations = 20.0

     negative rho (up, down):  3.361E-02 0.000E+00

     total cpu time spent up to now is     2472.9 secs

     total energy              =   -4470.78196067 Ry
     estimated scf accuracy    <       0.00020437 Ry

     iteration #167     ecut=    45.00 Ry     beta= 0.40
     Davidson diagonalization with overlap
     c_bands:  1 eigenvalues not converged
     c_bands:  1 eigenvalues not converged
     c_bands:  2 eigenvalues not converged
     ethr =  1.15E-09,  avg # of iterations = 20.0

     negative rho (up, down):  3.521E-02 0.000E+00

     total cpu time spent up to now is     2494.7 secs

     total energy              =   -4470.78198656 Ry
     estimated scf accuracy    <       0.00037554 Ry

     iteration #168     ecut=    45.00 Ry     beta= 0.40
     Davidson diagonalization with overlap
     c_bands:  1 eigenvalues not converged
     c_bands:  4 eigenvalues not converged
     ethr =  1.15E-09,  avg # of iterations = 18.0

     negative rho (up, down):  3.447E-02 0.000E+00

     total cpu time spent up to now is     2515.3 secs

     total energy              =   -4470.78199424 Ry
     estimated scf accuracy    <       0.00054195 Ry

     iteration #169     ecut=    45.00 Ry     beta= 0.40
     Davidson diagonalization with overlap
     c_bands:  1 eigenvalues not converged
     c_bands:  4 eigenvalues not converged
     ethr =  1.15E-09,  avg # of iterations = 18.0

     negative rho (up, down):  3.255E-02 0.000E+00

     total cpu time spent up to now is     2534.2 secs

     total energy              =   -4470.78192467 Ry
     estimated scf accuracy    <       0.00093983 Ry

     iteration #170     ecut=    45.00 Ry     beta= 0.40
     Davidson diagonalization with overlap
     c_bands:  1 eigenvalues not converged
     c_bands:  2 eigenvalues not converged
     c_bands:  2 eigenvalues not converged
     ethr =  1.15E-09,  avg # of iterations = 20.0

     negative rho (up, down):  3.236E-02 0.000E+00

     total cpu time spent up to now is     2559.6 secs

     total energy              =   -4470.78199156 Ry
     estimated scf accuracy    <       0.00015468 Ry

     iteration #171     ecut=    45.00 Ry     beta= 0.40
     Davidson diagonalization with overlap
     c_bands:  1 eigenvalues not converged
     c_bands:  3 eigenvalues not converged
     ethr =  1.15E-09,  avg # of iterations = 19.0

     negative rho (up, down):  3.235E-02 0.000E+00

     total cpu time spent up to now is     2577.3 secs

     total energy              =   -4470.78198665 Ry
     estimated scf accuracy    <       0.00009903 Ry

     iteration #172     ecut=    45.00 Ry     beta= 0.40
     Davidson diagonalization with overlap
     c_bands:  1 eigenvalues not converged
     c_bands:  3 eigenvalues not converged
     ethr =  1.15E-09,  avg # of iterations = 18.7

     negative rho (up, down):  3.264E-02 0.000E+00

     total cpu time spent up to now is     2595.5 secs

     total energy              =   -4470.78197891 Ry
     estimated scf accuracy    <       0.00004860 Ry

     iteration #173     ecut=    45.00 Ry     beta= 0.40
     Davidson diagonalization with overlap
     c_bands:  1 eigenvalues not converged
     c_bands:  1 eigenvalues not converged
     c_bands:  2 eigenvalues not converged
     ethr =  1.15E-09,  avg # of iterations = 20.0

     negative rho (up, down):  3.265E-02 0.000E+00

     total cpu time spent up to now is     2616.8 secs

     total energy              =   -4470.78201101 Ry
     estimated scf accuracy    <       0.00056823 Ry

     iteration #174     ecut=    45.00 Ry     beta= 0.40
     Davidson diagonalization with overlap
     c_bands:  1 eigenvalues not converged
     c_bands:  2 eigenvalues not converged
     ethr =  1.15E-09,  avg # of iterations = 14.0

     negative rho (up, down):  3.320E-02 0.000E+00

     total cpu time spent up to now is     2629.8 secs

     total energy              =   -4470.78204787 Ry
     estimated scf accuracy    <       0.00057442 Ry

     iteration #175     ecut=    45.00 Ry     beta= 0.40
     Davidson diagonalization with overlap
     c_bands:  1 eigenvalues not converged
     c_bands:  1 eigenvalues not converged
     c_bands:  1 eigenvalues not converged
     ethr =  1.15E-09,  avg # of iterations = 20.0

     negative rho (up, down):  3.281E-02 0.000E+00

     total cpu time spent up to now is     2650.7 secs

     total energy              =   -4470.78202102 Ry
     estimated scf accuracy    <       0.00106352 Ry

     iteration #176     ecut=    45.00 Ry     beta= 0.40
     Davidson diagonalization with overlap
     c_bands:  1 eigenvalues not converged
     ethr =  1.15E-09,  avg # of iterations = 17.0

     negative rho (up, down):  3.272E-02 0.000E+00

     total cpu time spent up to now is     2667.2 secs

     total energy              =   -4470.78201400 Ry
     estimated scf accuracy    <       0.00074653 Ry

     iteration #177     ecut=    45.00 Ry     beta= 0.40
     Davidson diagonalization with overlap
     c_bands:  1 eigenvalues not converged
     ethr =  1.15E-09,  avg # of iterations = 10.3

     negative rho (up, down):  3.260E-02 0.000E+00

     total cpu time spent up to now is     2679.2 secs

     total energy              =   -4470.78200421 Ry
     estimated scf accuracy    <       0.00067824 Ry

     iteration #178     ecut=    45.00 Ry     beta= 0.40
     Davidson diagonalization with overlap
     c_bands:  1 eigenvalues not converged
     ethr =  1.15E-09,  avg # of iterations = 13.7

     negative rho (up, down):  3.258E-02 0.000E+00

     total cpu time spent up to now is     2693.5 secs

     total energy              =   -4470.78200575 Ry
     estimated scf accuracy    <       0.00054125 Ry

     iteration #179     ecut=    45.00 Ry     beta= 0.40
     Davidson diagonalization with overlap
     c_bands:  1 eigenvalues not converged
     ethr =  1.15E-09,  avg # of iterations =  7.3

     negative rho (up, down):  3.254E-02 0.000E+00

     total cpu time spent up to now is     2703.8 secs

     total energy              =   -4470.78200112 Ry
     estimated scf accuracy    <       0.00054586 Ry

     iteration #180     ecut=    45.00 Ry     beta= 0.40
     Davidson diagonalization with overlap
     c_bands:  1 eigenvalues not converged
     ethr =  1.15E-09,  avg # of iterations =  7.3

     negative rho (up, down):  3.266E-02 0.000E+00

     total cpu time spent up to now is     2714.2 secs

     total energy              =   -4470.78201507 Ry
     estimated scf accuracy    <       0.00051938 Ry

     iteration #181     ecut=    45.00 Ry     beta= 0.40
     Davidson diagonalization with overlap
     c_bands:  1 eigenvalues not converged
     ethr =  1.15E-09,  avg # of iterations = 11.3

     negative rho (up, down):  3.316E-02 0.000E+00

     total cpu time spent up to now is     2726.6 secs

     total energy              =   -4470.78182776 Ry
     estimated scf accuracy    <       0.00062055 Ry

     iteration #182     ecut=    45.00 Ry     beta= 0.40
     Davidson diagonalization with overlap
     c_bands:  3 eigenvalues not converged
     c_bands:  4 eigenvalues not converged
     c_bands:  2 eigenvalues not converged
     ethr =  1.15E-09,  avg # of iterations = 20.0

     negative rho (up, down):  3.282E-02 0.000E+00

     total cpu time spent up to now is     2756.2 secs

     total energy              =   -4470.78171497 Ry
     estimated scf accuracy    <       0.00273453 Ry

     iteration #183     ecut=    45.00 Ry     beta= 0.40
     Davidson diagonalization with overlap
     c_bands:  2 eigenvalues not converged
     c_bands:  2 eigenvalues not converged
     c_bands:  4 eigenvalues not converged
     ethr =  1.15E-09,  avg # of iterations = 20.0

     negative rho (up, down):  3.273E-02 0.000E+00

     total cpu time spent up to now is     2784.1 secs

     total energy              =   -4470.78197223 Ry
     estimated scf accuracy    <       0.00018951 Ry

     iteration #184     ecut=    45.00 Ry     beta= 0.40
     Davidson diagonalization with overlap
     c_bands:  1 eigenvalues not converged
     c_bands:  1 eigenvalues not converged
     ethr =  1.15E-09,  avg # of iterations = 17.0

     negative rho (up, down):  3.279E-02 0.000E+00

     total cpu time spent up to now is     2799.3 secs

     total energy              =   -4470.78196818 Ry
     estimated scf accuracy    <       0.00010866 Ry

     iteration #185     ecut=    45.00 Ry     beta= 0.40
     Davidson diagonalization with overlap
     c_bands:  1 eigenvalues not converged
     c_bands:  1 eigenvalues not converged
     ethr =  1.15E-09,  avg # of iterations = 18.3

     negative rho (up, down):  3.290E-02 0.000E+00

     total cpu time spent up to now is     2814.6 secs

     total energy              =   -4470.78196462 Ry
     estimated scf accuracy    <       0.00006734 Ry

     iteration #186     ecut=    45.00 Ry     beta= 0.40
     Davidson diagonalization with overlap
     c_bands:  1 eigenvalues not converged
     c_bands:  1 eigenvalues not converged
     ethr =  1.15E-09,  avg # of iterations = 18.3

     negative rho (up, down):  3.288E-02 0.000E+00

     total cpu time spent up to now is     2830.8 secs

     total energy              =   -4470.78196587 Ry
     estimated scf accuracy    <       0.00002741 Ry

     iteration #187     ecut=    45.00 Ry     beta= 0.40
     Davidson diagonalization with overlap
     c_bands:  1 eigenvalues not converged
     c_bands:  1 eigenvalues not converged
     ethr =  1.15E-09,  avg # of iterations = 13.7

     negative rho (up, down):  3.290E-02 0.000E+00

     total cpu time spent up to now is     2842.9 secs

     total energy              =   -4470.78196582 Ry
     estimated scf accuracy    <       0.00002597 Ry

     iteration #188     ecut=    45.00 Ry     beta= 0.40
     Davidson diagonalization with overlap
     c_bands:  1 eigenvalues not converged
     c_bands:  1 eigenvalues not converged
     ethr =  1.15E-09,  avg # of iterations = 13.7

     negative rho (up, down):  3.293E-02 0.000E+00

     total cpu time spent up to now is     2854.9 secs

     total energy              =   -4470.78196598 Ry
     estimated scf accuracy    <       0.00001769 Ry

     iteration #189     ecut=    45.00 Ry     beta= 0.40
     Davidson diagonalization with overlap
     c_bands:  1 eigenvalues not converged
     c_bands:  1 eigenvalues not converged
     ethr =  1.15E-09,  avg # of iterations = 14.0

     negative rho (up, down):  3.292E-02 0.000E+00

     total cpu time spent up to now is     2867.5 secs

     total energy              =   -4470.78196727 Ry
     estimated scf accuracy    <       0.00001232 Ry

     iteration #190     ecut=    45.00 Ry     beta= 0.40
     Davidson diagonalization with overlap
     c_bands:  1 eigenvalues not converged
     c_bands:  1 eigenvalues not converged
     ethr =  1.15E-09,  avg # of iterations = 13.7

     negative rho (up, down):  3.311E-02 0.000E+00

     total cpu time spent up to now is     2879.5 secs

     total energy              =   -4470.78196672 Ry
     estimated scf accuracy    <       0.00000849 Ry

     iteration #191     ecut=    45.00 Ry     beta= 0.40
     Davidson diagonalization with overlap
     c_bands:  1 eigenvalues not converged
     c_bands:  1 eigenvalues not converged
     ethr =  1.15E-09,  avg # of iterations = 19.0

     negative rho (up, down):  3.308E-02 0.000E+00

     total cpu time spent up to now is     2896.4 secs

     total energy              =   -4470.78197076 Ry
     estimated scf accuracy    <       0.00000609 Ry

     iteration #192     ecut=    45.00 Ry     beta= 0.40
     Davidson diagonalization with overlap
     c_bands:  1 eigenvalues not converged
     c_bands:  1 eigenvalues not converged
     ethr =  1.12E-09,  avg # of iterations = 13.7

     negative rho (up, down):  3.310E-02 0.000E+00

     total cpu time spent up to now is     2908.5 secs

     total energy              =   -4470.78197353 Ry
     estimated scf accuracy    <       0.00000859 Ry

     iteration #193     ecut=    45.00 Ry     beta= 0.40
     Davidson diagonalization with overlap
     c_bands:  1 eigenvalues not converged
     c_bands:  1 eigenvalues not converged
     ethr =  1.12E-09,  avg # of iterations = 13.7

     negative rho (up, down):  3.311E-02 0.000E+00

     total cpu time spent up to now is     2920.5 secs

     total energy              =   -4470.78197653 Ry
     estimated scf accuracy    <       0.00001681 Ry

     iteration #194     ecut=    45.00 Ry     beta= 0.40
     Davidson diagonalization with overlap
     c_bands:  1 eigenvalues not converged
     c_bands:  1 eigenvalues not converged
     ethr =  1.12E-09,  avg # of iterations = 13.7

     negative rho (up, down):  3.312E-02 0.000E+00

     total cpu time spent up to now is     2932.6 secs

     total energy              =   -4470.78198015 Ry
     estimated scf accuracy    <       0.00002402 Ry

     iteration #195     ecut=    45.00 Ry     beta= 0.40
     Davidson diagonalization with overlap
     c_bands:  1 eigenvalues not converged
     c_bands:  1 eigenvalues not converged
     ethr =  1.12E-09,  avg # of iterations = 13.7

     negative rho (up, down):  3.316E-02 0.000E+00

     total cpu time spent up to now is     2944.7 secs

     total energy              =   -4470.78198449 Ry
     estimated scf accuracy    <       0.00004458 Ry

     iteration #196     ecut=    45.00 Ry     beta= 0.40
     Davidson diagonalization with overlap
     c_bands:  1 eigenvalues not converged
     c_bands:  1 eigenvalues not converged
     ethr =  1.12E-09,  avg # of iterations = 15.0

     negative rho (up, down):  3.316E-02 0.000E+00

     total cpu time spent up to now is     2957.5 secs

     total energy              =   -4470.78198940 Ry
     estimated scf accuracy    <       0.00006045 Ry

     iteration #197     ecut=    45.00 Ry     beta= 0.40
     Davidson diagonalization with overlap
     c_bands:  1 eigenvalues not converged
     c_bands:  1 eigenvalues not converged
     ethr =  1.12E-09,  avg # of iterations = 13.7

     negative rho (up, down):  3.323E-02 0.000E+00

     total cpu time spent up to now is     2969.5 secs

     total energy              =   -4470.78199612 Ry
     estimated scf accuracy    <       0.00010142 Ry

     iteration #198     ecut=    45.00 Ry     beta= 0.40
     Davidson diagonalization with overlap
     c_bands:  1 eigenvalues not converged
     c_bands:  1 eigenvalues not converged
     ethr =  1.12E-09,  avg # of iterations = 15.0

     negative rho (up, down):  3.311E-02 0.000E+00

     total cpu time spent up to now is     2982.3 secs

     total energy              =   -4470.78200090 Ry
     estimated scf accuracy    <       0.00014739 Ry

     iteration #199     ecut=    45.00 Ry     beta= 0.40
     Davidson diagonalization with overlap
     c_bands:  1 eigenvalues not converged
     c_bands:  1 eigenvalues not converged
     ethr =  1.12E-09,  avg # of iterations = 15.0

     negative rho (up, down):  3.310E-02 0.000E+00

     total cpu time spent up to now is     2996.2 secs

     total energy              =   -4470.78200845 Ry
     estimated scf accuracy    <       0.00022051 Ry

     iteration #200     ecut=    45.00 Ry     beta= 0.40
     Davidson diagonalization with overlap
     c_bands:  1 eigenvalues not converged
     c_bands:  1 eigenvalues not converged
     ethr =  1.12E-09,  avg # of iterations = 13.7

     negative rho (up, down):  3.316E-02 0.000E+00

     total cpu time spent up to now is     3008.4 secs

     total energy              =   -4470.78201725 Ry
     estimated scf accuracy    <       0.00026713 Ry

     End of self-consistent calculation

     convergence NOT achieved after 200 iterations: stopping

     Writing config to output data dir ./QE_output/TiN.save/ :
     XML data file, charge density

     init_run     :      7.77s CPU      8.46s WALL (       1 calls)
     electrons    :   2834.32s CPU   3000.03s WALL (       1 calls)

     Called by init_run:
     wfcinit      :      5.09s CPU      5.48s WALL (       1 calls)
     potinit      :      0.48s CPU      0.52s WALL (       1 calls)
     hinit0       :      0.45s CPU      0.48s WALL (       1 calls)

     Called by electrons:
     c_bands      :   2476.37s CPU   2586.36s WALL (     200 calls)
     sum_band     :    269.13s CPU    301.67s WALL (     200 calls)
     v_of_rho     :     15.36s CPU     19.42s WALL (     201 calls)
     newd         :     66.17s CPU     84.02s WALL (     201 calls)
     mix_rho      :      5.37s CPU      5.86s WALL (     200 calls)
     energy_dftd3 :      0.08s CPU      0.08s WALL (       1 calls)

     Called by c_bands:
     init_us_2    :     36.27s CPU     37.11s WALL (    1203 calls)
     cegterg      :   2415.66s CPU   2523.09s WALL (     605 calls)

     Called by *egterg:
     cdiaghg      :    341.28s CPU    357.50s WALL (    7445 calls)
     h_psi        :   1077.26s CPU   1123.89s WALL (    7448 calls)
     s_psi        :    267.13s CPU    271.40s WALL (    7448 calls)
     g_psi        :      4.47s CPU      4.69s WALL (    6840 calls)

     Called by h_psi:
     h_psi:calbec :    302.06s CPU    311.68s WALL (    7448 calls)
     vloc_psi     :    485.63s CPU    511.01s WALL (    7448 calls)
     add_vuspsi   :    280.97s CPU    286.79s WALL (    7448 calls)

     General routines
     calbec       :    388.91s CPU    401.61s WALL (    8048 calls)
     fft          :      9.64s CPU     12.35s WALL (    2613 calls)
     ffts         :      0.86s CPU      1.00s WALL (     401 calls)
     fftw         :    442.29s CPU    464.85s WALL ( 1022676 calls)
     interpolate  :      1.45s CPU      1.68s WALL (     201 calls)
     davcio       :      0.00s CPU      0.31s WALL (      21 calls)

     Parallel routines

     PWSCF        :  47m22.44s CPU  50m 9.81s WALL


   This run was terminated on:  22:36:33  30May2025            

=------------------------------------------------------------------------------=
   JOB DONE.
=------------------------------------------------------------------------------=
