
     Program PWSCF v.7.4 starts on 31May2025 at 16:49:35 

     This program is part of the open-source Quantum ESPRESSO suite
     for quantum simulation of materials; please cite
         "P. Giannozzi et al., J. Phys.:Condens. Matter 21 395502 (2009);
         "P. Giannozzi et al., J. Phys.:Condens. Matter 29 465901 (2017);
         "P. Giannozzi et al., J. Chem. Phys. 152 154105 (2020);
          URL http://www.quantum-espresso.org", 
     in publications or presentations arising from this work. More details at
     http://www.quantum-espresso.org/quote

     Parallel version (MPI & OpenMP), running on      40 processor cores
     Number of MPI processes:                40
     Threads/MPI process:                     1

     MPI processes distributed on     1 nodes
     830188 MiB available memory on the printing compute node when the environment starts

     Reading input from espresso.pwi
Warning: card &CELL ignored
Warning: card / ignored
Warning: card &FCP ignored
Warning: card / ignored
Warning: card &RISM ignored
Warning: card / ignored

     Current dimensions of program PWSCF are:
     Max number of different atomic species (ntypx) = 10
     Max number of k-points (npk) =  40000
     Max angular momentum in pseudopotentials (lmaxx) =  4

     IMPORTANT: XC functional enforced from input :
     Exchange-correlation= PBE
                           (   1   4   3   4   0   0   0)
     Any further DFT definition will be discarded
     Please, verify this is what you really want

     Found identity + (  0.2500 -0.2500  0.0000) symmetry
     This is a supercell, fractional translations are disabled
     Message from routine setup:
     using ibrav=0 with symmetry is DISCOURAGED, use correct ibrav instead

     R & G space division:  proc/nbgrp/npool/nimage =      40
     Subspace diagonalization in iterative solution of the eigenvalue problem:
     one sub-group per band group will be used
     ELPA distributed-memory algorithm (size of sub-group:  3*  3 procs)


     Parallelization info
     --------------------
     sticks:   dense  smooth     PW     G-vecs:    dense   smooth      PW
     Min         161      80     21                18889     6672     921
     Max         162      81     22                18896     6679     932
     Sum        6469    3233    869               755731   267045   37061

     Using Slab Decomposition



     bravais-lattice index     =            0
     lattice parameter (alat)  =      15.9202  a.u.
     unit-cell volume          =    7815.8501 (a.u.)^3
     number of atoms/cell      =           64
     number of atomic types    =            2
     number of electrons       =       544.00
     number of Kohn-Sham states=          272
     kinetic-energy cutoff     =      40.0000  Ry
     charge density cutoff     =     320.0000  Ry
     scf convergence threshold =      1.0E-06
     mixing beta               =       0.4000
     number of iterations used =            8  local-TF  mixing
     Exchange-correlation= PBE
                           (   1   4   3   4   0   0   0)

     celldm(1)=  15.920220  celldm(2)=   0.000000  celldm(3)=   0.000000
     celldm(4)=   0.000000  celldm(5)=   0.000000  celldm(6)=   0.000000

     crystal axes: (cart. coord. in units of alat)
               a(1) = (   1.000000   0.000000   0.000000 )  
               a(2) = (   0.000000   1.000000   0.000000 )  
               a(3) = (   0.000000   0.000000   1.936998 )  

     reciprocal axes: (cart. coord. in units 2 pi/alat)
               b(1) = (  1.000000  0.000000  0.000000 )  
               b(2) = (  0.000000  1.000000  0.000000 )  
               b(3) = (  0.000000  0.000000  0.516263 )  


     PseudoPot. # 1 for N  read from file:
     /nfs/home/a/a_nizami/pseudo_dir/N.pbe-n-radius_5.UPF
     MD5 check sum: 16739722b17309cd8fe442a2ace49922
     Pseudo is Ultrasoft + core correction, Zval =  5.0
     Generated using "atomic" code by A. Dal Corso  v.5.1
     Using radial grid of 1085 points,  4 beta functions with: 
                l(1) =   0
                l(2) =   0
                l(3) =   1
                l(4) =   1
     Q(r) pseudized with 0 coefficients 


     PseudoPot. # 2 for Ti read from file:
     /nfs/home/a/a_nizami/pseudo_dir/ti_pbe_v1.4.uspp.F.UPF
     MD5 check sum: 88a00a6731bd790ddea75d31a80cb452
     Pseudo is Ultrasoft + core correction, Zval = 12.0
     Generated by new atomic code, or converted to UPF format
     Using radial grid of  851 points,  6 beta functions with: 
                l(1) =   0
                l(2) =   0
                l(3) =   1
                l(4) =   1
                l(5) =   2
                l(6) =   2
     Q(r) pseudized with  6 coefficients,  rinner =    1.000   1.000   1.000
                                                       1.000   1.000

     atomic species   valence    mass     pseudopotential
     N                 5.00    14.00700     N ( 1.00)
     Ti               12.00    47.86700     Ti( 1.00)

      8 Sym. Ops. (no inversion) found



   Cartesian axes

     site n.     atom                  positions (alat units)
         1        N      tau(   1) = (   0.0000000   0.2500000   0.5934988  )
         2        N      tau(   2) = (   0.0000000   0.0000000   0.8434988  )
         3        N      tau(   3) = (   0.2500000   0.0000000   0.5934988  )
         4        N      tau(   4) = (   0.2500000   0.2500000   0.8434988  )
         5        Ti     tau(   5) = (   0.0000000   0.0000000   0.5934988  )
         6        Ti     tau(   6) = (   0.2500000   0.0000000   0.8434988  )
         7        Ti     tau(   7) = (   0.0000000   0.2500000   0.8434988  )
         8        Ti     tau(   8) = (   0.2500000   0.2500000   0.5934988  )
         9        N      tau(   9) = (   0.0000000   0.2500000   1.0934988  )
        10        N      tau(  10) = (   0.0000000   0.0000000   1.3434988  )
        11        N      tau(  11) = (   0.2500000   0.0000000   1.0934988  )
        12        N      tau(  12) = (   0.2500000   0.2500000   1.3434988  )
        13        Ti     tau(  13) = (   0.0000000   0.0000000   1.0934988  )
        14        Ti     tau(  14) = (   0.2500000   0.0000000   1.3434988  )
        15        Ti     tau(  15) = (   0.0000000   0.2500000   1.3434988  )
        16        Ti     tau(  16) = (   0.2500000   0.2500000   1.0934988  )
        17        N      tau(  17) = (   0.0000000   0.7500000   0.5934988  )
        18        N      tau(  18) = (   0.0000000   0.5000000   0.8434988  )
        19        N      tau(  19) = (   0.2500000   0.5000000   0.5934988  )
        20        N      tau(  20) = (   0.2500000   0.7500000   0.8434988  )
        21        Ti     tau(  21) = (   0.0000000   0.5000000   0.5934988  )
        22        Ti     tau(  22) = (   0.2500000   0.5000000   0.8434988  )
        23        Ti     tau(  23) = (   0.0000000   0.7500000   0.8434988  )
        24        Ti     tau(  24) = (   0.2500000   0.7500000   0.5934988  )
        25        N      tau(  25) = (   0.0000000   0.7500000   1.0934988  )
        26        N      tau(  26) = (   0.0000000   0.5000000   1.3434988  )
        27        N      tau(  27) = (   0.2500000   0.5000000   1.0934988  )
        28        N      tau(  28) = (   0.2500000   0.7500000   1.3434988  )
        29        Ti     tau(  29) = (   0.0000000   0.5000000   1.0934988  )
        30        Ti     tau(  30) = (   0.2500000   0.5000000   1.3434988  )
        31        Ti     tau(  31) = (   0.0000000   0.7500000   1.3434988  )
        32        Ti     tau(  32) = (   0.2500000   0.7500000   1.0934988  )
        33        N      tau(  33) = (   0.5000000   0.2500000   0.5934988  )
        34        N      tau(  34) = (   0.5000000   0.0000000   0.8434988  )
        35        N      tau(  35) = (   0.7500000   0.0000000   0.5934988  )
        36        N      tau(  36) = (   0.7500000   0.2500000   0.8434988  )
        37        Ti     tau(  37) = (   0.5000000   0.0000000   0.5934988  )
        38        Ti     tau(  38) = (   0.7500000   0.0000000   0.8434988  )
        39        Ti     tau(  39) = (   0.5000000   0.2500000   0.8434988  )
        40        Ti     tau(  40) = (   0.7500000   0.2500000   0.5934988  )
        41        N      tau(  41) = (   0.5000000   0.2500000   1.0934988  )
        42        N      tau(  42) = (   0.5000000   0.0000000   1.3434988  )
        43        N      tau(  43) = (   0.7500000   0.0000000   1.0934988  )
        44        N      tau(  44) = (   0.7500000   0.2500000   1.3434988  )
        45        Ti     tau(  45) = (   0.5000000   0.0000000   1.0934988  )
        46        Ti     tau(  46) = (   0.7500000   0.0000000   1.3434988  )
        47        Ti     tau(  47) = (   0.5000000   0.2500000   1.3434988  )
        48        Ti     tau(  48) = (   0.7500000   0.2500000   1.0934988  )
        49        N      tau(  49) = (   0.5000000   0.7500000   0.5934988  )
        50        N      tau(  50) = (   0.5000000   0.5000000   0.8434988  )
        51        N      tau(  51) = (   0.7500000   0.5000000   0.5934988  )
        52        N      tau(  52) = (   0.7500000   0.7500000   0.8434988  )
        53        Ti     tau(  53) = (   0.5000000   0.5000000   0.5934988  )
        54        Ti     tau(  54) = (   0.7500000   0.5000000   0.8434988  )
        55        Ti     tau(  55) = (   0.5000000   0.7500000   0.8434988  )
        56        Ti     tau(  56) = (   0.7500000   0.7500000   0.5934988  )
        57        N      tau(  57) = (   0.5000000   0.7500000   1.0934988  )
        58        N      tau(  58) = (   0.5000000   0.5000000   1.3434988  )
        59        N      tau(  59) = (   0.7500000   0.5000000   1.0934988  )
        60        N      tau(  60) = (   0.7500000   0.7500000   1.3434988  )
        61        Ti     tau(  61) = (   0.5000000   0.5000000   1.0934988  )
        62        Ti     tau(  62) = (   0.7500000   0.5000000   1.3434988  )
        63        Ti     tau(  63) = (   0.5000000   0.7500000   1.3434988  )
        64        Ti     tau(  64) = (   0.7500000   0.7500000   1.0934988  )

     --------------------------------------------
     DFT-D3 Dispersion Correction (3-body terms):
     --------------------------------------------
       Reference C6 values for interpolation: 

         atom   Coordination number   C6
         N          0.000            50.54
         N          0.994            44.25
         N          2.014            39.35
         N          2.990            31.16
         Ti         0.000          2723.84
         Ti         1.830           604.00
         Ti         3.868           643.18

       Values used:

         atom   Coordination number  R0_AB[au]  C6      C8
         N          4.937            2.478     31.16    687.49
         N          5.960            2.478     31.16    687.49
         N          4.937            2.478     31.16    687.49
         N          5.960            2.478     31.16    687.49
         Ti        11.601            3.557    643.18  76289.64
         Ti        15.889            3.557    643.18  76289.64
         Ti        15.889            3.557    643.18  76289.64
         Ti        11.601            3.557    643.18  76289.64
         N          5.960            2.478     31.16    687.49
         N          4.937            2.478     31.16    687.49
         N          5.960            2.478     31.16    687.49
         N          4.937            2.478     31.16    687.49
         Ti        15.889            3.557    643.18  76289.64
         Ti        11.601            3.557    643.18  76289.64
         Ti        11.601            3.557    643.18  76289.64
         Ti        15.889            3.557    643.18  76289.64
         N          4.937            2.478     31.16    687.49
         N          5.960            2.478     31.16    687.49
         N          4.937            2.478     31.16    687.49
         N          5.960            2.478     31.16    687.49
         Ti        11.601            3.557    643.18  76289.64
         Ti        15.889            3.557    643.18  76289.64
         Ti        15.889            3.557    643.18  76289.64
         Ti        11.601            3.557    643.18  76289.64
         N          5.960            2.478     31.16    687.49
         N          4.937            2.478     31.16    687.49
         N          5.960            2.478     31.16    687.49
         N          4.937            2.478     31.16    687.49
         Ti        15.889            3.557    643.18  76289.64
         Ti        11.601            3.557    643.18  76289.64
         Ti        11.601            3.557    643.18  76289.64
         Ti        15.889            3.557    643.18  76289.64
         N          4.937            2.478     31.16    687.49
         N          5.960            2.478     31.16    687.49
         N          4.937            2.478     31.16    687.49
         N          5.960            2.478     31.16    687.49
         Ti        11.601            3.557    643.18  76289.64
         Ti        15.889            3.557    643.18  76289.64
         Ti        15.889            3.557    643.18  76289.64
         Ti        11.601            3.557    643.18  76289.64
         N          5.960            2.478     31.16    687.49
         N          4.937            2.478     31.16    687.49
         N          5.960            2.478     31.16    687.49
         N          4.937            2.478     31.16    687.49
         Ti        15.889            3.557    643.18  76289.64
         Ti        11.601            3.557    643.18  76289.64
         Ti        11.601            3.557    643.18  76289.64
         Ti        15.889            3.557    643.18  76289.64
         N          4.937            2.478     31.16    687.49
         N          5.960            2.478     31.16    687.49
         N          4.937            2.478     31.16    687.49
         N          5.960            2.478     31.16    687.49
         Ti        11.601            3.557    643.18  76289.64
         Ti        15.889            3.557    643.18  76289.64
         Ti        15.889            3.557    643.18  76289.64
         Ti        11.601            3.557    643.18  76289.64
         N          5.960            2.478     31.16    687.49
         N          4.937            2.478     31.16    687.49
         N          5.960            2.478     31.16    687.49
         N          4.937            2.478     31.16    687.49
         Ti        15.889            3.557    643.18  76289.64
         Ti        11.601            3.557    643.18  76289.64
         Ti        11.601            3.557    643.18  76289.64
         Ti        15.889            3.557    643.18  76289.64

         Molecular C6 ( Ry / a.u.^6 ) =    961929.42


     number of k points=     6
                       cart. coord. in units 2pi/alat
        k(    1) = (   0.0000000   0.0000000   0.0000000), wk =   0.0800000
        k(    2) = (   0.0000000   0.2000000   0.0000000), wk =   0.3200000
        k(    3) = (   0.0000000   0.4000000   0.0000000), wk =   0.3200000
        k(    4) = (   0.2000000   0.2000000   0.0000000), wk =   0.3200000
        k(    5) = (   0.2000000   0.4000000   0.0000000), wk =   0.6400000
        k(    6) = (   0.4000000   0.4000000   0.0000000), wk =   0.3200000

     Dense  grid:   755731 G-vectors     FFT dimensions: (  96,  96, 180)

     Smooth grid:   267045 G-vectors     FFT dimensions: (  72,  72, 125)

     Estimated max dynamical RAM per process >     112.04 MB

     Estimated total dynamical RAM >       4.38 GB

     Check: negative core charge=   -0.000010

     Initial potential from superposition of free atoms

     starting charge     511.9984, renormalised to     544.0000

     negative rho (up, down):  4.529E-02 0.000E+00
     Starting wfcs are  448 randomized atomic wfcs

     total cpu time spent up to now is        7.7 secs

     per-process dynamical memory:    64.0 Mb

     Self-consistent Calculation

     iteration #  1     ecut=    40.00 Ry     beta= 0.40
     Davidson diagonalization with overlap
     ethr =  1.00E-02,  avg # of iterations =  3.0

     negative rho (up, down):  4.205E-02 0.000E+00

     total cpu time spent up to now is       22.3 secs

     total energy              =   -4470.52680454 Ry
     estimated scf accuracy    <      22.55646914 Ry

     iteration #  2     ecut=    40.00 Ry     beta= 0.40
     Davidson diagonalization with overlap
     ethr =  4.15E-03,  avg # of iterations =  2.0

     negative rho (up, down):  3.969E-02 0.000E+00

     total cpu time spent up to now is       33.5 secs

     total energy              =   -4468.30106135 Ry
     estimated scf accuracy    <       7.88864016 Ry

     iteration #  3     ecut=    40.00 Ry     beta= 0.40
     Davidson diagonalization with overlap
     ethr =  1.45E-03,  avg # of iterations =  4.8

     negative rho (up, down):  3.637E-02 0.000E+00

     total cpu time spent up to now is       50.5 secs

     total energy              =   -4470.25689741 Ry
     estimated scf accuracy    <       2.89774653 Ry

     iteration #  4     ecut=    40.00 Ry     beta= 0.40
     Davidson diagonalization with overlap
     ethr =  5.33E-04,  avg # of iterations =  4.0

     negative rho (up, down):  3.204E-02 0.000E+00

     total cpu time spent up to now is       65.5 secs

     total energy              =   -4470.77011118 Ry
     estimated scf accuracy    <       0.49559387 Ry

     iteration #  5     ecut=    40.00 Ry     beta= 0.40
     Davidson diagonalization with overlap
     ethr =  9.11E-05,  avg # of iterations = 10.2

     negative rho (up, down):  3.159E-02 0.000E+00

     total cpu time spent up to now is       85.5 secs

     total energy              =   -4470.80393332 Ry
     estimated scf accuracy    <       0.43397447 Ry

     iteration #  6     ecut=    40.00 Ry     beta= 0.40
     Davidson diagonalization with overlap
     ethr =  7.98E-05,  avg # of iterations =  1.7

     negative rho (up, down):  3.245E-02 0.000E+00

     total cpu time spent up to now is       96.1 secs

     total energy              =   -4470.72518794 Ry
     estimated scf accuracy    <       0.29789816 Ry

     iteration #  7     ecut=    40.00 Ry     beta= 0.40
     Davidson diagonalization with overlap
     ethr =  5.48E-05,  avg # of iterations =  9.5

     negative rho (up, down):  3.148E-02 0.000E+00

     total cpu time spent up to now is      115.4 secs

     total energy              =   -4470.81721773 Ry
     estimated scf accuracy    <       0.19356619 Ry

     iteration #  8     ecut=    40.00 Ry     beta= 0.40
     Davidson diagonalization with overlap
     ethr =  3.56E-05,  avg # of iterations =  4.0

     negative rho (up, down):  3.252E-02 0.000E+00

     total cpu time spent up to now is      128.2 secs

     total energy              =   -4470.77141739 Ry
     estimated scf accuracy    <       0.22924242 Ry

     iteration #  9     ecut=    40.00 Ry     beta= 0.40
     Davidson diagonalization with overlap
     c_bands:  1 eigenvalues not converged
     ethr =  3.56E-05,  avg # of iterations =  9.8

     negative rho (up, down):  3.224E-02 0.000E+00

     total cpu time spent up to now is      143.9 secs

     total energy              =   -4470.80153100 Ry
     estimated scf accuracy    <       0.24877874 Ry

     iteration # 10     ecut=    40.00 Ry     beta= 0.40
     Davidson diagonalization with overlap
     ethr =  3.56E-05,  avg # of iterations =  1.3

     negative rho (up, down):  3.190E-02 0.000E+00

     total cpu time spent up to now is      154.0 secs

     total energy              =   -4470.79771531 Ry
     estimated scf accuracy    <       0.20588454 Ry

     iteration # 11     ecut=    40.00 Ry     beta= 0.40
     Davidson diagonalization with overlap
     ethr =  3.56E-05,  avg # of iterations =  3.0

     negative rho (up, down):  3.170E-02 0.000E+00

     total cpu time spent up to now is      164.9 secs

     total energy              =   -4470.78909815 Ry
     estimated scf accuracy    <       0.15662530 Ry

     iteration # 12     ecut=    40.00 Ry     beta= 0.40
     Davidson diagonalization with overlap
     ethr =  2.88E-05,  avg # of iterations =  5.0

     negative rho (up, down):  3.169E-02 0.000E+00

     total cpu time spent up to now is      177.1 secs

     total energy              =   -4470.79542044 Ry
     estimated scf accuracy    <       0.03388219 Ry

     iteration # 13     ecut=    40.00 Ry     beta= 0.40
     Davidson diagonalization with overlap
     c_bands:  1 eigenvalues not converged
     ethr =  6.23E-06,  avg # of iterations =  9.8

     negative rho (up, down):  3.166E-02 0.000E+00

     total cpu time spent up to now is      192.9 secs

     total energy              =   -4470.81191688 Ry
     estimated scf accuracy    <       0.00285512 Ry

     iteration # 14     ecut=    40.00 Ry     beta= 0.40
     Davidson diagonalization with overlap
     c_bands:  2 eigenvalues not converged
     c_bands:  2 eigenvalues not converged
     ethr =  5.25E-07,  avg # of iterations = 16.8

     negative rho (up, down):  3.168E-02 0.000E+00

     total cpu time spent up to now is      217.8 secs

     total energy              =   -4470.81863081 Ry
     estimated scf accuracy    <       0.06206745 Ry

     iteration # 15     ecut=    40.00 Ry     beta= 0.40
     Davidson diagonalization with overlap
     ethr =  5.25E-07,  avg # of iterations =  4.3

     negative rho (up, down):  3.179E-02 0.000E+00

     total cpu time spent up to now is      228.7 secs

     total energy              =   -4470.81624835 Ry
     estimated scf accuracy    <       0.06151523 Ry

     iteration # 16     ecut=    40.00 Ry     beta= 0.40
     Davidson diagonalization with overlap
     ethr =  5.25E-07,  avg # of iterations = 10.2

     negative rho (up, down):  3.179E-02 0.000E+00

     total cpu time spent up to now is      247.6 secs

     total energy              =   -4470.81545398 Ry
     estimated scf accuracy    <       0.03129261 Ry

     iteration # 17     ecut=    40.00 Ry     beta= 0.40
     Davidson diagonalization with overlap
     ethr =  5.25E-07,  avg # of iterations =  7.0

     negative rho (up, down):  3.188E-02 0.000E+00

     total cpu time spent up to now is      262.2 secs

     total energy              =   -4470.81472181 Ry
     estimated scf accuracy    <       0.01220300 Ry

     iteration # 18     ecut=    40.00 Ry     beta= 0.40
     Davidson diagonalization with overlap
     c_bands:  1 eigenvalues not converged
     ethr =  5.25E-07,  avg # of iterations = 10.5

     negative rho (up, down):  3.184E-02 0.000E+00

     total cpu time spent up to now is      281.3 secs

     total energy              =   -4470.81775619 Ry
     estimated scf accuracy    <       0.00173329 Ry

     iteration # 19     ecut=    40.00 Ry     beta= 0.40
     Davidson diagonalization with overlap
     c_bands:  1 eigenvalues not converged
     ethr =  3.19E-07,  avg # of iterations =  8.8

     negative rho (up, down):  3.203E-02 0.000E+00

     total cpu time spent up to now is      295.1 secs

     total energy              =   -4470.81745262 Ry
     estimated scf accuracy    <       0.00346056 Ry

     iteration # 20     ecut=    40.00 Ry     beta= 0.40
     Davidson diagonalization with overlap
     ethr =  3.19E-07,  avg # of iterations = 13.2

     negative rho (up, down):  3.204E-02 0.000E+00

     total cpu time spent up to now is      317.6 secs

     total energy              =   -4470.81860989 Ry
     estimated scf accuracy    <       0.01642113 Ry

     iteration # 21     ecut=    40.00 Ry     beta= 0.40
     Davidson diagonalization with overlap
     ethr =  3.19E-07,  avg # of iterations =  5.5

     negative rho (up, down):  3.196E-02 0.000E+00

     total cpu time spent up to now is      329.5 secs

     total energy              =   -4470.81738094 Ry
     estimated scf accuracy    <       0.01482382 Ry

     iteration # 22     ecut=    40.00 Ry     beta= 0.40
     Davidson diagonalization with overlap
     ethr =  3.19E-07,  avg # of iterations = 10.7

     negative rho (up, down):  3.191E-02 0.000E+00

     total cpu time spent up to now is      347.1 secs

     total energy              =   -4470.81770180 Ry
     estimated scf accuracy    <       0.00101493 Ry

     iteration # 23     ecut=    40.00 Ry     beta= 0.40
     Davidson diagonalization with overlap
     c_bands:  1 eigenvalues not converged
     ethr =  1.87E-07,  avg # of iterations = 10.2

     negative rho (up, down):  3.192E-02 0.000E+00

     total cpu time spent up to now is      366.6 secs

     total energy              =   -4470.81788898 Ry
     estimated scf accuracy    <       0.00139371 Ry

     iteration # 24     ecut=    40.00 Ry     beta= 0.40
     Davidson diagonalization with overlap
     ethr =  1.87E-07,  avg # of iterations =  3.0

     negative rho (up, down):  3.195E-02 0.000E+00

     total cpu time spent up to now is      376.9 secs

     total energy              =   -4470.81776892 Ry
     estimated scf accuracy    <       0.00131297 Ry

     iteration # 25     ecut=    40.00 Ry     beta= 0.40
     Davidson diagonalization with overlap
     c_bands:  1 eigenvalues not converged
     c_bands:  1 eigenvalues not converged
     ethr =  1.87E-07,  avg # of iterations = 11.5

     negative rho (up, down):  3.195E-02 0.000E+00

     total cpu time spent up to now is      392.5 secs

     total energy              =   -4470.81800880 Ry
     estimated scf accuracy    <       0.00177119 Ry

     iteration # 26     ecut=    40.00 Ry     beta= 0.40
     Davidson diagonalization with overlap
     ethr =  1.87E-07,  avg # of iterations =  2.8

     negative rho (up, down):  3.193E-02 0.000E+00

     total cpu time spent up to now is      403.1 secs

     total energy              =   -4470.81774583 Ry
     estimated scf accuracy    <       0.00206667 Ry

     iteration # 27     ecut=    40.00 Ry     beta= 0.40
     Davidson diagonalization with overlap
     ethr =  1.87E-07,  avg # of iterations =  7.3

     negative rho (up, down):  3.193E-02 0.000E+00

     total cpu time spent up to now is      418.1 secs

     total energy              =   -4470.81785280 Ry
     estimated scf accuracy    <       0.00039734 Ry

     iteration # 28     ecut=    40.00 Ry     beta= 0.40
     Davidson diagonalization with overlap
     ethr =  7.30E-08,  avg # of iterations =  5.5

     negative rho (up, down):  3.192E-02 0.000E+00

     total cpu time spent up to now is      432.2 secs

     total energy              =   -4470.81784376 Ry
     estimated scf accuracy    <       0.00030794 Ry

     iteration # 29     ecut=    40.00 Ry     beta= 0.40
     Davidson diagonalization with overlap
     c_bands:  1 eigenvalues not converged
     c_bands:  1 eigenvalues not converged
     c_bands:  1 eigenvalues not converged
     ethr =  5.66E-08,  avg # of iterations = 14.0

     negative rho (up, down):  3.192E-02 0.000E+00

     total cpu time spent up to now is      448.2 secs

     total energy              =   -4470.81789495 Ry
     estimated scf accuracy    <       0.00058893 Ry

     iteration # 30     ecut=    40.00 Ry     beta= 0.40
     Davidson diagonalization with overlap
     ethr =  5.66E-08,  avg # of iterations =  6.8

     negative rho (up, down):  3.192E-02 0.000E+00

     total cpu time spent up to now is      460.2 secs

     total energy              =   -4470.81791343 Ry
     estimated scf accuracy    <       0.00054574 Ry

     iteration # 31     ecut=    40.00 Ry     beta= 0.40
     Davidson diagonalization with overlap
     ethr =  5.66E-08,  avg # of iterations =  1.2

     negative rho (up, down):  3.192E-02 0.000E+00

     total cpu time spent up to now is      469.9 secs

     total energy              =   -4470.81789506 Ry
     estimated scf accuracy    <       0.00059169 Ry

     iteration # 32     ecut=    40.00 Ry     beta= 0.40
     Davidson diagonalization with overlap
     ethr =  5.66E-08,  avg # of iterations =  1.2

     negative rho (up, down):  3.193E-02 0.000E+00

     total cpu time spent up to now is      479.6 secs

     total energy              =   -4470.81789663 Ry
     estimated scf accuracy    <       0.00055650 Ry

     iteration # 33     ecut=    40.00 Ry     beta= 0.40
     Davidson diagonalization with overlap
     ethr =  5.66E-08,  avg # of iterations =  1.0

     negative rho (up, down):  3.192E-02 0.000E+00

     total cpu time spent up to now is      489.1 secs

     total energy              =   -4470.81791391 Ry
     estimated scf accuracy    <       0.00054716 Ry

     iteration # 34     ecut=    40.00 Ry     beta= 0.40
     Davidson diagonalization with overlap
     ethr =  5.66E-08,  avg # of iterations =  1.0

     negative rho (up, down):  3.193E-02 0.000E+00

     total cpu time spent up to now is      498.7 secs

     total energy              =   -4470.81787583 Ry
     estimated scf accuracy    <       0.00062288 Ry

     iteration # 35     ecut=    40.00 Ry     beta= 0.40
     Davidson diagonalization with overlap
     ethr =  5.66E-08,  avg # of iterations =  1.7

     negative rho (up, down):  3.193E-02 0.000E+00

     total cpu time spent up to now is      509.0 secs

     total energy              =   -4470.81786674 Ry
     estimated scf accuracy    <       0.00053014 Ry

     iteration # 36     ecut=    40.00 Ry     beta= 0.40
     Davidson diagonalization with overlap
     ethr =  5.66E-08,  avg # of iterations =  6.0

     negative rho (up, down):  3.193E-02 0.000E+00

     total cpu time spent up to now is      522.8 secs

     total energy              =   -4470.81787447 Ry
     estimated scf accuracy    <       0.00048232 Ry

     iteration # 37     ecut=    40.00 Ry     beta= 0.40
     Davidson diagonalization with overlap
     ethr =  5.66E-08,  avg # of iterations =  4.7

     negative rho (up, down):  3.194E-02 0.000E+00

     total cpu time spent up to now is      534.6 secs

     total energy              =   -4470.81778743 Ry
     estimated scf accuracy    <       0.00043098 Ry

     iteration # 38     ecut=    40.00 Ry     beta= 0.40
     Davidson diagonalization with overlap
     c_bands:  1 eigenvalues not converged
     c_bands:  1 eigenvalues not converged
     ethr =  5.66E-08,  avg # of iterations = 14.5

     negative rho (up, down):  3.193E-02 0.000E+00

     total cpu time spent up to now is      556.4 secs

     total energy              =   -4470.81767306 Ry
     estimated scf accuracy    <       0.00748839 Ry

     iteration # 39     ecut=    40.00 Ry     beta= 0.40
     Davidson diagonalization with overlap
     c_bands:  1 eigenvalues not converged
     ethr =  5.66E-08,  avg # of iterations = 13.7

     negative rho (up, down):  3.193E-02 0.000E+00

     total cpu time spent up to now is      576.4 secs

     total energy              =   -4470.81787412 Ry
     estimated scf accuracy    <       0.00067298 Ry

     iteration # 40     ecut=    40.00 Ry     beta= 0.40
     Davidson diagonalization with overlap
     c_bands:  1 eigenvalues not converged
     ethr =  5.66E-08,  avg # of iterations =  4.2

     negative rho (up, down):  3.193E-02 0.000E+00

     total cpu time spent up to now is      587.1 secs

     total energy              =   -4470.81790222 Ry
     estimated scf accuracy    <       0.00058403 Ry

     iteration # 41     ecut=    40.00 Ry     beta= 0.40
     Davidson diagonalization with overlap
     ethr =  5.66E-08,  avg # of iterations =  1.2

     negative rho (up, down):  3.194E-02 0.000E+00

     total cpu time spent up to now is      597.1 secs

     total energy              =   -4470.81793369 Ry
     estimated scf accuracy    <       0.00060776 Ry

     iteration # 42     ecut=    40.00 Ry     beta= 0.40
     Davidson diagonalization with overlap
     c_bands:  1 eigenvalues not converged
     ethr =  5.66E-08,  avg # of iterations =  4.8

     negative rho (up, down):  3.194E-02 0.000E+00

     total cpu time spent up to now is      608.2 secs

     total energy              =   -4470.81792552 Ry
     estimated scf accuracy    <       0.00080399 Ry

     iteration # 43     ecut=    40.00 Ry     beta= 0.40
     Davidson diagonalization with overlap
     ethr =  5.66E-08,  avg # of iterations =  4.0

     negative rho (up, down):  3.194E-02 0.000E+00

     total cpu time spent up to now is      618.9 secs

     total energy              =   -4470.81793181 Ry
     estimated scf accuracy    <       0.00078044 Ry

     iteration # 44     ecut=    40.00 Ry     beta= 0.40
     Davidson diagonalization with overlap
     ethr =  5.66E-08,  avg # of iterations =  1.0

     negative rho (up, down):  3.194E-02 0.000E+00

     total cpu time spent up to now is      628.5 secs

     total energy              =   -4470.81787931 Ry
     estimated scf accuracy    <       0.00081675 Ry

     iteration # 45     ecut=    40.00 Ry     beta= 0.40
     Davidson diagonalization with overlap
     c_bands:  1 eigenvalues not converged
     ethr =  5.66E-08,  avg # of iterations = 11.8

     negative rho (up, down):  3.194E-02 0.000E+00

     total cpu time spent up to now is      644.4 secs

     total energy              =   -4470.81789008 Ry
     estimated scf accuracy    <       0.00113021 Ry

     iteration # 46     ecut=    40.00 Ry     beta= 0.40
     Davidson diagonalization with overlap
     c_bands:  1 eigenvalues not converged
     ethr =  5.66E-08,  avg # of iterations = 12.2

     negative rho (up, down):  3.194E-02 0.000E+00

     total cpu time spent up to now is      659.7 secs

     total energy              =   -4470.81791131 Ry
     estimated scf accuracy    <       0.00125906 Ry

     iteration # 47     ecut=    40.00 Ry     beta= 0.40
     Davidson diagonalization with overlap
     c_bands:  1 eigenvalues not converged
     c_bands:  1 eigenvalues not converged
     ethr =  5.66E-08,  avg # of iterations = 14.0

     negative rho (up, down):  3.193E-02 0.000E+00

     total cpu time spent up to now is      679.9 secs

     total energy              =   -4470.81772167 Ry
     estimated scf accuracy    <       0.00980506 Ry

     iteration # 48     ecut=    40.00 Ry     beta= 0.40
     Davidson diagonalization with overlap
     c_bands:  1 eigenvalues not converged
     c_bands:  1 eigenvalues not converged
     ethr =  5.66E-08,  avg # of iterations = 15.0

     negative rho (up, down):  3.194E-02 0.000E+00

     total cpu time spent up to now is      699.9 secs

     total energy              =   -4470.81782987 Ry
     estimated scf accuracy    <       0.00131274 Ry

     iteration # 49     ecut=    40.00 Ry     beta= 0.40
     Davidson diagonalization with overlap
     c_bands:  1 eigenvalues not converged
     c_bands:  1 eigenvalues not converged
     c_bands:  1 eigenvalues not converged
     ethr =  5.66E-08,  avg # of iterations = 14.3

     negative rho (up, down):  3.194E-02 0.000E+00

     total cpu time spent up to now is      717.7 secs

     total energy              =   -4470.81785436 Ry
     estimated scf accuracy    <       0.00050239 Ry

     iteration # 50     ecut=    40.00 Ry     beta= 0.40
     Davidson diagonalization with overlap
     c_bands:  1 eigenvalues not converged
     c_bands:  1 eigenvalues not converged
     ethr =  5.66E-08,  avg # of iterations = 13.3

     negative rho (up, down):  3.193E-02 0.000E+00

     total cpu time spent up to now is      733.8 secs

     total energy              =   -4470.81785679 Ry
     estimated scf accuracy    <       0.00148627 Ry

     iteration # 51     ecut=    40.00 Ry     beta= 0.40
     Davidson diagonalization with overlap
     c_bands:  1 eigenvalues not converged
     ethr =  5.66E-08,  avg # of iterations =  9.5

     negative rho (up, down):  3.194E-02 0.000E+00

     total cpu time spent up to now is      747.7 secs

     total energy              =   -4470.81789481 Ry
     estimated scf accuracy    <       0.00077909 Ry

     iteration # 52     ecut=    40.00 Ry     beta= 0.40
     Davidson diagonalization with overlap
     c_bands:  1 eigenvalues not converged
     ethr =  5.66E-08,  avg # of iterations =  4.3

     negative rho (up, down):  3.193E-02 0.000E+00

     total cpu time spent up to now is      758.6 secs

     total energy              =   -4470.81789333 Ry
     estimated scf accuracy    <       0.00077978 Ry

     iteration # 53     ecut=    40.00 Ry     beta= 0.40
     Davidson diagonalization with overlap
     c_bands:  1 eigenvalues not converged
     ethr =  5.66E-08,  avg # of iterations =  7.2

     negative rho (up, down):  3.193E-02 0.000E+00

     total cpu time spent up to now is      771.3 secs

     total energy              =   -4470.81788312 Ry
     estimated scf accuracy    <       0.00069173 Ry

     iteration # 54     ecut=    40.00 Ry     beta= 0.40
     Davidson diagonalization with overlap
     ethr =  5.66E-08,  avg # of iterations =  4.0

     negative rho (up, down):  3.193E-02 0.000E+00

     total cpu time spent up to now is      782.2 secs

     total energy              =   -4470.81788203 Ry
     estimated scf accuracy    <       0.00060543 Ry

     iteration # 55     ecut=    40.00 Ry     beta= 0.40
     Davidson diagonalization with overlap
     ethr =  5.66E-08,  avg # of iterations =  1.0

     negative rho (up, down):  3.194E-02 0.000E+00

     total cpu time spent up to now is      791.8 secs

     total energy              =   -4470.81788439 Ry
     estimated scf accuracy    <       0.00057433 Ry

     iteration # 56     ecut=    40.00 Ry     beta= 0.40
     Davidson diagonalization with overlap
     c_bands:  1 eigenvalues not converged
     c_bands:  1 eigenvalues not converged
     ethr =  5.66E-08,  avg # of iterations = 13.2

     negative rho (up, down):  3.193E-02 0.000E+00

     total cpu time spent up to now is      809.0 secs

     total energy              =   -4470.81782314 Ry
     estimated scf accuracy    <       0.00176333 Ry

     iteration # 57     ecut=    40.00 Ry     beta= 0.40
     Davidson diagonalization with overlap
     ethr =  5.66E-08,  avg # of iterations = 11.8

     negative rho (up, down):  3.193E-02 0.000E+00

     total cpu time spent up to now is      826.5 secs

     total energy              =   -4470.81788225 Ry
     estimated scf accuracy    <       0.00049632 Ry

     iteration # 58     ecut=    40.00 Ry     beta= 0.40
     Davidson diagonalization with overlap
     ethr =  5.66E-08,  avg # of iterations =  1.7

     negative rho (up, down):  3.193E-02 0.000E+00

     total cpu time spent up to now is      837.4 secs

     total energy              =   -4470.81781421 Ry
     estimated scf accuracy    <       0.00046615 Ry

     iteration # 59     ecut=    40.00 Ry     beta= 0.40
     Davidson diagonalization with overlap
     c_bands:  1 eigenvalues not converged
     c_bands:  1 eigenvalues not converged
     ethr =  5.66E-08,  avg # of iterations = 11.7

     negative rho (up, down):  3.193E-02 0.000E+00

     total cpu time spent up to now is      854.1 secs

     total energy              =   -4470.81787130 Ry
     estimated scf accuracy    <       0.00037366 Ry

     iteration # 60     ecut=    40.00 Ry     beta= 0.40
     Davidson diagonalization with overlap
     c_bands:  1 eigenvalues not converged
     c_bands:  1 eigenvalues not converged
     ethr =  5.66E-08,  avg # of iterations =  7.3

     negative rho (up, down):  3.193E-02 0.000E+00

     total cpu time spent up to now is      865.9 secs

     total energy              =   -4470.81786428 Ry
     estimated scf accuracy    <       0.00040429 Ry

     iteration # 61     ecut=    40.00 Ry     beta= 0.40
     Davidson diagonalization with overlap
     c_bands:  1 eigenvalues not converged
     ethr =  5.66E-08,  avg # of iterations =  5.7

     negative rho (up, down):  3.193E-02 0.000E+00

     total cpu time spent up to now is      877.8 secs

     total energy              =   -4470.81785981 Ry
     estimated scf accuracy    <       0.00039930 Ry

     iteration # 62     ecut=    40.00 Ry     beta= 0.40
     Davidson diagonalization with overlap
     c_bands:  1 eigenvalues not converged
     ethr =  5.66E-08,  avg # of iterations =  7.5

     negative rho (up, down):  3.193E-02 0.000E+00

     total cpu time spent up to now is      890.3 secs

     total energy              =   -4470.81786706 Ry
     estimated scf accuracy    <       0.00034285 Ry

     iteration # 63     ecut=    40.00 Ry     beta= 0.40
     Davidson diagonalization with overlap
     c_bands:  1 eigenvalues not converged
     ethr =  5.66E-08,  avg # of iterations =  4.2

     negative rho (up, down):  3.193E-02 0.000E+00

     total cpu time spent up to now is      901.0 secs

     total energy              =   -4470.81786898 Ry
     estimated scf accuracy    <       0.00037730 Ry

     iteration # 64     ecut=    40.00 Ry     beta= 0.40
     Davidson diagonalization with overlap
     c_bands:  2 eigenvalues not converged
     c_bands:  1 eigenvalues not converged
     ethr =  5.66E-08,  avg # of iterations = 11.0

     negative rho (up, down):  3.193E-02 0.000E+00

     total cpu time spent up to now is      915.2 secs

     total energy              =   -4470.81788649 Ry
     estimated scf accuracy    <       0.00036364 Ry

     iteration # 65     ecut=    40.00 Ry     beta= 0.40
     Davidson diagonalization with overlap
     c_bands:  1 eigenvalues not converged
     ethr =  5.66E-08,  avg # of iterations =  7.8

     negative rho (up, down):  3.193E-02 0.000E+00

     total cpu time spent up to now is      927.7 secs

     total energy              =   -4470.81790055 Ry
     estimated scf accuracy    <       0.00042895 Ry

     iteration # 66     ecut=    40.00 Ry     beta= 0.40
     Davidson diagonalization with overlap
     c_bands:  1 eigenvalues not converged
     c_bands:  2 eigenvalues not converged
     ethr =  5.66E-08,  avg # of iterations =  9.5

     negative rho (up, down):  3.193E-02 0.000E+00

     total cpu time spent up to now is      941.2 secs

     total energy              =   -4470.81786963 Ry
     estimated scf accuracy    <       0.00053948 Ry

     iteration # 67     ecut=    40.00 Ry     beta= 0.40
     Davidson diagonalization with overlap
     c_bands:  1 eigenvalues not converged
     c_bands:  1 eigenvalues not converged
     ethr =  5.66E-08,  avg # of iterations = 11.0

     negative rho (up, down):  3.193E-02 0.000E+00

     total cpu time spent up to now is      955.3 secs

     total energy              =   -4470.81789288 Ry
     estimated scf accuracy    <       0.00030698 Ry

     iteration # 68     ecut=    40.00 Ry     beta= 0.40
     Davidson diagonalization with overlap
     c_bands:  1 eigenvalues not converged
     ethr =  5.64E-08,  avg # of iterations =  4.5

     negative rho (up, down):  3.193E-02 0.000E+00

     total cpu time spent up to now is      966.4 secs

     total energy              =   -4470.81789125 Ry
     estimated scf accuracy    <       0.00043841 Ry

     iteration # 69     ecut=    40.00 Ry     beta= 0.40
     Davidson diagonalization with overlap
     c_bands:  1 eigenvalues not converged
     ethr =  5.64E-08,  avg # of iterations =  4.2

     negative rho (up, down):  3.193E-02 0.000E+00

     total cpu time spent up to now is      977.0 secs

     total energy              =   -4470.81789322 Ry
     estimated scf accuracy    <       0.00039417 Ry

     iteration # 70     ecut=    40.00 Ry     beta= 0.40
     Davidson diagonalization with overlap
     c_bands:  1 eigenvalues not converged
     ethr =  5.64E-08,  avg # of iterations =  4.2

     negative rho (up, down):  3.193E-02 0.000E+00

     total cpu time spent up to now is      987.7 secs

     total energy              =   -4470.81787944 Ry
     estimated scf accuracy    <       0.00045213 Ry

     iteration # 71     ecut=    40.00 Ry     beta= 0.40
     Davidson diagonalization with overlap
     c_bands:  1 eigenvalues not converged
     ethr =  5.64E-08,  avg # of iterations =  5.0

     negative rho (up, down):  3.192E-02 0.000E+00

     total cpu time spent up to now is     1002.3 secs

     total energy              =   -4470.81786511 Ry
     estimated scf accuracy    <       0.00035523 Ry

     iteration # 72     ecut=    40.00 Ry     beta= 0.40
     Davidson diagonalization with overlap
     c_bands:  1 eigenvalues not converged
     ethr =  5.64E-08,  avg # of iterations = 11.5

     negative rho (up, down):  3.192E-02 0.000E+00

     total cpu time spent up to now is     1017.5 secs

     total energy              =   -4470.81788639 Ry
     estimated scf accuracy    <       0.00058379 Ry

     iteration # 73     ecut=    40.00 Ry     beta= 0.40
     Davidson diagonalization with overlap
     c_bands:  1 eigenvalues not converged
     ethr =  5.64E-08,  avg # of iterations =  5.7

     negative rho (up, down):  3.192E-02 0.000E+00

     total cpu time spent up to now is     1029.3 secs

     total energy              =   -4470.81785863 Ry
     estimated scf accuracy    <       0.00055457 Ry

     iteration # 74     ecut=    40.00 Ry     beta= 0.40
     Davidson diagonalization with overlap
     c_bands:  1 eigenvalues not converged
     ethr =  5.64E-08,  avg # of iterations = 12.0

     negative rho (up, down):  3.193E-02 0.000E+00

     total cpu time spent up to now is     1045.8 secs

     total energy              =   -4470.81779628 Ry
     estimated scf accuracy    <       0.00122728 Ry

     iteration # 75     ecut=    40.00 Ry     beta= 0.40
     Davidson diagonalization with overlap
     c_bands:  1 eigenvalues not converged
     ethr =  5.64E-08,  avg # of iterations = 11.2

     negative rho (up, down):  3.193E-02 0.000E+00

     total cpu time spent up to now is     1061.6 secs

     total energy              =   -4470.81786705 Ry
     estimated scf accuracy    <       0.00056286 Ry

     iteration # 76     ecut=    40.00 Ry     beta= 0.40
     Davidson diagonalization with overlap
     c_bands:  1 eigenvalues not converged
     ethr =  5.64E-08,  avg # of iterations =  4.3

     negative rho (up, down):  3.193E-02 0.000E+00

     total cpu time spent up to now is     1072.5 secs

     total energy              =   -4470.81787916 Ry
     estimated scf accuracy    <       0.00052813 Ry

     iteration # 77     ecut=    40.00 Ry     beta= 0.40
     Davidson diagonalization with overlap
     c_bands:  1 eigenvalues not converged
     ethr =  5.64E-08,  avg # of iterations =  9.2

     negative rho (up, down):  3.193E-02 0.000E+00

     total cpu time spent up to now is     1085.9 secs

     total energy              =   -4470.81786519 Ry
     estimated scf accuracy    <       0.00040723 Ry

     iteration # 78     ecut=    40.00 Ry     beta= 0.40
     Davidson diagonalization with overlap
     c_bands:  1 eigenvalues not converged
     ethr =  5.64E-08,  avg # of iterations =  8.8

     negative rho (up, down):  3.193E-02 0.000E+00

     total cpu time spent up to now is     1099.5 secs

     total energy              =   -4470.81788709 Ry
     estimated scf accuracy    <       0.00027701 Ry

     iteration # 79     ecut=    40.00 Ry     beta= 0.40
     Davidson diagonalization with overlap
     c_bands:  1 eigenvalues not converged
     ethr =  5.09E-08,  avg # of iterations =  4.3

     negative rho (up, down):  3.193E-02 0.000E+00

     total cpu time spent up to now is     1110.5 secs

     total energy              =   -4470.81789918 Ry
     estimated scf accuracy    <       0.00033110 Ry

     iteration # 80     ecut=    40.00 Ry     beta= 0.40
     Davidson diagonalization with overlap
     c_bands:  1 eigenvalues not converged
     ethr =  5.09E-08,  avg # of iterations =  4.7

     negative rho (up, down):  3.193E-02 0.000E+00

     total cpu time spent up to now is     1121.9 secs

     total energy              =   -4470.81787398 Ry
     estimated scf accuracy    <       0.00039173 Ry

     iteration # 81     ecut=    40.00 Ry     beta= 0.40
     Davidson diagonalization with overlap
     c_bands:  1 eigenvalues not converged
     ethr =  5.09E-08,  avg # of iterations =  5.0

     negative rho (up, down):  3.193E-02 0.000E+00

     total cpu time spent up to now is     1133.7 secs

     total energy              =   -4470.81786859 Ry
     estimated scf accuracy    <       0.00035812 Ry

     iteration # 82     ecut=    40.00 Ry     beta= 0.40
     Davidson diagonalization with overlap
     c_bands:  1 eigenvalues not converged
     ethr =  5.09E-08,  avg # of iterations = 11.0

     negative rho (up, down):  3.193E-02 0.000E+00

     total cpu time spent up to now is     1148.1 secs

     total energy              =   -4470.81788670 Ry
     estimated scf accuracy    <       0.00029506 Ry

     iteration # 83     ecut=    40.00 Ry     beta= 0.40
     Davidson diagonalization with overlap
     c_bands:  1 eigenvalues not converged
     ethr =  5.09E-08,  avg # of iterations =  4.2

     negative rho (up, down):  3.193E-02 0.000E+00

     total cpu time spent up to now is     1158.9 secs

     total energy              =   -4470.81789573 Ry
     estimated scf accuracy    <       0.00039015 Ry

     iteration # 84     ecut=    40.00 Ry     beta= 0.40
     Davidson diagonalization with overlap
     c_bands:  1 eigenvalues not converged
     c_bands:  1 eigenvalues not converged
     ethr =  5.09E-08,  avg # of iterations = 10.7

     negative rho (up, down):  3.193E-02 0.000E+00

     total cpu time spent up to now is     1173.8 secs

     total energy              =   -4470.81794246 Ry
     estimated scf accuracy    <       0.00070969 Ry

     iteration # 85     ecut=    40.00 Ry     beta= 0.40
     Davidson diagonalization with overlap
     c_bands:  1 eigenvalues not converged
     c_bands:  1 eigenvalues not converged
     ethr =  5.09E-08,  avg # of iterations =  8.0

     negative rho (up, down):  3.193E-02 0.000E+00

     total cpu time spent up to now is     1186.5 secs

     total energy              =   -4470.81792909 Ry
     estimated scf accuracy    <       0.00092482 Ry

     iteration # 86     ecut=    40.00 Ry     beta= 0.40
     Davidson diagonalization with overlap
     c_bands:  1 eigenvalues not converged
     c_bands:  1 eigenvalues not converged
     ethr =  5.09E-08,  avg # of iterations =  7.3

     negative rho (up, down):  3.193E-02 0.000E+00

     total cpu time spent up to now is     1198.4 secs

     total energy              =   -4470.81795632 Ry
     estimated scf accuracy    <       0.00097610 Ry

     iteration # 87     ecut=    40.00 Ry     beta= 0.40
     Davidson diagonalization with overlap
     c_bands:  1 eigenvalues not converged
     c_bands:  1 eigenvalues not converged
     ethr =  5.09E-08,  avg # of iterations =  7.3

     negative rho (up, down):  3.193E-02 0.000E+00

     total cpu time spent up to now is     1210.4 secs

     total energy              =   -4470.81802262 Ry
     estimated scf accuracy    <       0.00123135 Ry

     iteration # 88     ecut=    40.00 Ry     beta= 0.40
     Davidson diagonalization with overlap
     c_bands:  1 eigenvalues not converged
     c_bands:  1 eigenvalues not converged
     ethr =  5.09E-08,  avg # of iterations = 10.5

     negative rho (up, down):  3.194E-02 0.000E+00

     total cpu time spent up to now is     1224.3 secs

     total energy              =   -4470.81803772 Ry
     estimated scf accuracy    <       0.00189678 Ry

     iteration # 89     ecut=    40.00 Ry     beta= 0.40
     Davidson diagonalization with overlap
     c_bands:  1 eigenvalues not converged
     c_bands:  1 eigenvalues not converged
     ethr =  5.09E-08,  avg # of iterations = 13.7

     negative rho (up, down):  3.193E-02 0.000E+00

     total cpu time spent up to now is     1241.1 secs

     total energy              =   -4470.81790480 Ry
     estimated scf accuracy    <       0.00298530 Ry

     iteration # 90     ecut=    40.00 Ry     beta= 0.40
     Davidson diagonalization with overlap
     c_bands:  1 eigenvalues not converged
     c_bands:  1 eigenvalues not converged
     ethr =  5.09E-08,  avg # of iterations = 13.3

     negative rho (up, down):  3.194E-02 0.000E+00

     total cpu time spent up to now is     1257.1 secs

     total energy              =   -4470.81791939 Ry
     estimated scf accuracy    <       0.00126555 Ry

     iteration # 91     ecut=    40.00 Ry     beta= 0.40
     Davidson diagonalization with overlap
     c_bands:  1 eigenvalues not converged
     ethr =  5.09E-08,  avg # of iterations =  6.5

     negative rho (up, down):  3.193E-02 0.000E+00

     total cpu time spent up to now is     1268.9 secs

     total energy              =   -4470.81779760 Ry
     estimated scf accuracy    <       0.00120867 Ry

     iteration # 92     ecut=    40.00 Ry     beta= 0.40
     Davidson diagonalization with overlap
     c_bands:  1 eigenvalues not converged
     c_bands:  1 eigenvalues not converged
     ethr =  5.09E-08,  avg # of iterations = 14.5

     negative rho (up, down):  3.193E-02 0.000E+00

     total cpu time spent up to now is     1286.9 secs

     total energy              =   -4470.81785563 Ry
     estimated scf accuracy    <       0.00062067 Ry

     iteration # 93     ecut=    40.00 Ry     beta= 0.40
     Davidson diagonalization with overlap
     c_bands:  1 eigenvalues not converged
     ethr =  5.09E-08,  avg # of iterations =  5.8

     negative rho (up, down):  3.193E-02 0.000E+00

     total cpu time spent up to now is     1299.0 secs

     total energy              =   -4470.81783147 Ry
     estimated scf accuracy    <       0.00056805 Ry

     iteration # 94     ecut=    40.00 Ry     beta= 0.40
     Davidson diagonalization with overlap
     ethr =  5.09E-08,  avg # of iterations =  8.2

     negative rho (up, down):  3.193E-02 0.000E+00

     total cpu time spent up to now is     1312.5 secs

     total energy              =   -4470.81782591 Ry
     estimated scf accuracy    <       0.00028000 Ry

     iteration # 95     ecut=    40.00 Ry     beta= 0.40
     Davidson diagonalization with overlap
     ethr =  5.09E-08,  avg # of iterations =  2.0

     negative rho (up, down):  3.193E-02 0.000E+00

     total cpu time spent up to now is     1322.9 secs

     total energy              =   -4470.81777633 Ry
     estimated scf accuracy    <       0.00020837 Ry

     iteration # 96     ecut=    40.00 Ry     beta= 0.40
     Davidson diagonalization with overlap
     c_bands:  1 eigenvalues not converged
     c_bands:  1 eigenvalues not converged
     ethr =  3.83E-08,  avg # of iterations = 15.0

     negative rho (up, down):  3.193E-02 0.000E+00

     total cpu time spent up to now is     1342.6 secs

     total energy              =   -4470.81783727 Ry
     estimated scf accuracy    <       0.00154112 Ry

     iteration # 97     ecut=    40.00 Ry     beta= 0.40
     Davidson diagonalization with overlap
     c_bands:  1 eigenvalues not converged
     c_bands:  1 eigenvalues not converged
     ethr =  3.83E-08,  avg # of iterations = 13.3

     negative rho (up, down):  3.193E-02 0.000E+00

     total cpu time spent up to now is     1359.5 secs

     total energy              =   -4470.81787305 Ry
     estimated scf accuracy    <       0.00038930 Ry

     iteration # 98     ecut=    40.00 Ry     beta= 0.40
     Davidson diagonalization with overlap
     ethr =  3.83E-08,  avg # of iterations =  1.2

     negative rho (up, down):  3.193E-02 0.000E+00

     total cpu time spent up to now is     1369.3 secs

     total energy              =   -4470.81785760 Ry
     estimated scf accuracy    <       0.00029268 Ry

     iteration # 99     ecut=    40.00 Ry     beta= 0.40
     Davidson diagonalization with overlap
     ethr =  3.83E-08,  avg # of iterations =  6.7

     negative rho (up, down):  3.193E-02 0.000E+00

     total cpu time spent up to now is     1381.9 secs

     total energy              =   -4470.81786196 Ry
     estimated scf accuracy    <       0.00015538 Ry

     iteration #100     ecut=    40.00 Ry     beta= 0.40
     Davidson diagonalization with overlap
     ethr =  2.86E-08,  avg # of iterations =  3.5

     negative rho (up, down):  3.193E-02 0.000E+00

     total cpu time spent up to now is     1393.3 secs

     total energy              =   -4470.81785982 Ry
     estimated scf accuracy    <       0.00013144 Ry

     iteration #101     ecut=    40.00 Ry     beta= 0.40
     Davidson diagonalization with overlap
     ethr =  2.42E-08,  avg # of iterations =  5.0

     negative rho (up, down):  3.193E-02 0.000E+00

     total cpu time spent up to now is     1405.4 secs

     total energy              =   -4470.81786380 Ry
     estimated scf accuracy    <       0.00009783 Ry

     iteration #102     ecut=    40.00 Ry     beta= 0.40
     Davidson diagonalization with overlap
     ethr =  1.80E-08,  avg # of iterations =  1.7

     negative rho (up, down):  3.193E-02 0.000E+00

     total cpu time spent up to now is     1415.4 secs

     total energy              =   -4470.81786043 Ry
     estimated scf accuracy    <       0.00009479 Ry

     iteration #103     ecut=    40.00 Ry     beta= 0.40
     Davidson diagonalization with overlap
     ethr =  1.74E-08,  avg # of iterations = 10.0

     negative rho (up, down):  3.193E-02 0.000E+00

     total cpu time spent up to now is     1429.6 secs

     total energy              =   -4470.81786370 Ry
     estimated scf accuracy    <       0.00016998 Ry

     iteration #104     ecut=    40.00 Ry     beta= 0.40
     Davidson diagonalization with overlap
     ethr =  1.74E-08,  avg # of iterations =  7.2

     negative rho (up, down):  3.193E-02 0.000E+00

     total cpu time spent up to now is     1442.4 secs

     total energy              =   -4470.81785874 Ry
     estimated scf accuracy    <       0.00022152 Ry

     iteration #105     ecut=    40.00 Ry     beta= 0.40
     Davidson diagonalization with overlap
     ethr =  1.74E-08,  avg # of iterations =  9.5

     negative rho (up, down):  3.193E-02 0.000E+00

     total cpu time spent up to now is     1456.3 secs

     total energy              =   -4470.81786681 Ry
     estimated scf accuracy    <       0.00016307 Ry

     iteration #106     ecut=    40.00 Ry     beta= 0.40
     Davidson diagonalization with overlap
     ethr =  1.74E-08,  avg # of iterations =  1.2

     negative rho (up, down):  3.193E-02 0.000E+00

     total cpu time spent up to now is     1466.1 secs

     total energy              =   -4470.81786002 Ry
     estimated scf accuracy    <       0.00017606 Ry

     iteration #107     ecut=    40.00 Ry     beta= 0.40
     Davidson diagonalization with overlap
     ethr =  1.74E-08,  avg # of iterations =  3.2

     negative rho (up, down):  3.193E-02 0.000E+00

     total cpu time spent up to now is     1477.3 secs

     total energy              =   -4470.81785720 Ry
     estimated scf accuracy    <       0.00014237 Ry

     iteration #108     ecut=    40.00 Ry     beta= 0.40
     Davidson diagonalization with overlap
     ethr =  1.74E-08,  avg # of iterations =  7.2

     negative rho (up, down):  3.193E-02 0.000E+00

     total cpu time spent up to now is     1491.2 secs

     total energy              =   -4470.81785824 Ry
     estimated scf accuracy    <       0.00006985 Ry

     iteration #109     ecut=    40.00 Ry     beta= 0.40
     Davidson diagonalization with overlap
     c_bands:  1 eigenvalues not converged
     ethr =  1.28E-08,  avg # of iterations =  7.0

     negative rho (up, down):  3.193E-02 0.000E+00

     total cpu time spent up to now is     1503.8 secs

     total energy              =   -4470.81786088 Ry
     estimated scf accuracy    <       0.00005179 Ry

     iteration #110     ecut=    40.00 Ry     beta= 0.40
     Davidson diagonalization with overlap
     c_bands:  1 eigenvalues not converged
     c_bands:  1 eigenvalues not converged
     ethr =  9.52E-09,  avg # of iterations =  9.5

     negative rho (up, down):  3.193E-02 0.000E+00

     total cpu time spent up to now is     1518.6 secs

     total energy              =   -4470.81786168 Ry
     estimated scf accuracy    <       0.00005172 Ry

     iteration #111     ecut=    40.00 Ry     beta= 0.40
     Davidson diagonalization with overlap
     c_bands:  1 eigenvalues not converged
     c_bands:  1 eigenvalues not converged
     ethr =  9.51E-09,  avg # of iterations =  7.8

     negative rho (up, down):  3.193E-02 0.000E+00

     total cpu time spent up to now is     1531.0 secs

     total energy              =   -4470.81785897 Ry
     estimated scf accuracy    <       0.00004871 Ry

     iteration #112     ecut=    40.00 Ry     beta= 0.40
     Davidson diagonalization with overlap
     c_bands:  1 eigenvalues not converged
     ethr =  8.95E-09,  avg # of iterations =  7.0

     negative rho (up, down):  3.193E-02 0.000E+00

     total cpu time spent up to now is     1543.5 secs

     total energy              =   -4470.81785921 Ry
     estimated scf accuracy    <       0.00002827 Ry

     iteration #113     ecut=    40.00 Ry     beta= 0.40
     Davidson diagonalization with overlap
     c_bands:  1 eigenvalues not converged
     ethr =  5.20E-09,  avg # of iterations =  9.7

     negative rho (up, down):  3.193E-02 0.000E+00

     total cpu time spent up to now is     1557.6 secs

     total energy              =   -4470.81786068 Ry
     estimated scf accuracy    <       0.00005490 Ry

     iteration #114     ecut=    40.00 Ry     beta= 0.40
     Davidson diagonalization with overlap
     c_bands:  1 eigenvalues not converged
     ethr =  5.20E-09,  avg # of iterations =  4.2

     negative rho (up, down):  3.193E-02 0.000E+00

     total cpu time spent up to now is     1568.2 secs

     total energy              =   -4470.81786058 Ry
     estimated scf accuracy    <       0.00005355 Ry

     iteration #115     ecut=    40.00 Ry     beta= 0.40
     Davidson diagonalization with overlap
     ethr =  5.20E-09,  avg # of iterations =  1.2

     negative rho (up, down):  3.193E-02 0.000E+00

     total cpu time spent up to now is     1578.0 secs

     total energy              =   -4470.81785865 Ry
     estimated scf accuracy    <       0.00005091 Ry

     iteration #116     ecut=    40.00 Ry     beta= 0.40
     Davidson diagonalization with overlap
     c_bands:  1 eigenvalues not converged
     c_bands:  1 eigenvalues not converged
     ethr =  5.20E-09,  avg # of iterations = 14.8

     negative rho (up, down):  3.193E-02 0.000E+00

     total cpu time spent up to now is     1595.4 secs

     total energy              =   -4470.81786279 Ry
     estimated scf accuracy    <       0.00012900 Ry

     iteration #117     ecut=    40.00 Ry     beta= 0.40
     Davidson diagonalization with overlap
     c_bands:  1 eigenvalues not converged
     c_bands:  1 eigenvalues not converged
     ethr =  5.20E-09,  avg # of iterations =  8.7

     negative rho (up, down):  3.193E-02 0.000E+00

     total cpu time spent up to now is     1608.8 secs

     total energy              =   -4470.81786358 Ry
     estimated scf accuracy    <       0.00009887 Ry

     iteration #118     ecut=    40.00 Ry     beta= 0.40
     Davidson diagonalization with overlap
     c_bands:  1 eigenvalues not converged
     c_bands:  1 eigenvalues not converged
     c_bands:  1 eigenvalues not converged
     ethr =  5.20E-09,  avg # of iterations = 14.5

     negative rho (up, down):  3.193E-02 0.000E+00

     total cpu time spent up to now is     1624.9 secs

     total energy              =   -4470.81786344 Ry
     estimated scf accuracy    <       0.00011478 Ry

     iteration #119     ecut=    40.00 Ry     beta= 0.40
     Davidson diagonalization with overlap
     c_bands:  1 eigenvalues not converged
     ethr =  5.20E-09,  avg # of iterations =  9.5

     negative rho (up, down):  3.193E-02 0.000E+00

     total cpu time spent up to now is     1641.5 secs

     total energy              =   -4470.81786373 Ry
     estimated scf accuracy    <       0.00012724 Ry

     iteration #120     ecut=    40.00 Ry     beta= 0.40
     Davidson diagonalization with overlap
     c_bands:  1 eigenvalues not converged
     ethr =  5.20E-09,  avg # of iterations =  4.5

     negative rho (up, down):  3.193E-02 0.000E+00

     total cpu time spent up to now is     1653.7 secs

     total energy              =   -4470.81786420 Ry
     estimated scf accuracy    <       0.00012406 Ry

     iteration #121     ecut=    40.00 Ry     beta= 0.40
     Davidson diagonalization with overlap
     c_bands:  1 eigenvalues not converged
     ethr =  5.20E-09,  avg # of iterations =  6.7

     negative rho (up, down):  3.193E-02 0.000E+00

     total cpu time spent up to now is     1665.8 secs

     total energy              =   -4470.81786342 Ry
     estimated scf accuracy    <       0.00011461 Ry

     iteration #122     ecut=    40.00 Ry     beta= 0.40
     Davidson diagonalization with overlap
     c_bands:  1 eigenvalues not converged
     ethr =  5.20E-09,  avg # of iterations =  4.3

     negative rho (up, down):  3.193E-02 0.000E+00

     total cpu time spent up to now is     1676.6 secs

     total energy              =   -4470.81786170 Ry
     estimated scf accuracy    <       0.00011185 Ry

     iteration #123     ecut=    40.00 Ry     beta= 0.40
     Davidson diagonalization with overlap
     c_bands:  1 eigenvalues not converged
     c_bands:  1 eigenvalues not converged
     c_bands:  1 eigenvalues not converged
     ethr =  5.20E-09,  avg # of iterations = 14.5

     negative rho (up, down):  3.193E-02 0.000E+00

     total cpu time spent up to now is     1692.7 secs

     total energy              =   -4470.81786403 Ry
     estimated scf accuracy    <       0.00026740 Ry

     iteration #124     ecut=    40.00 Ry     beta= 0.40
     Davidson diagonalization with overlap
     ethr =  5.20E-09,  avg # of iterations =  6.2

     negative rho (up, down):  3.193E-02 0.000E+00

     total cpu time spent up to now is     1704.6 secs

     total energy              =   -4470.81785986 Ry
     estimated scf accuracy    <       0.00026156 Ry

     iteration #125     ecut=    40.00 Ry     beta= 0.40
     Davidson diagonalization with overlap
     c_bands:  1 eigenvalues not converged
     ethr =  5.20E-09,  avg # of iterations = 11.5

     negative rho (up, down):  3.193E-02 0.000E+00

     total cpu time spent up to now is     1719.9 secs

     total energy              =   -4470.81786300 Ry
     estimated scf accuracy    <       0.00064933 Ry

     iteration #126     ecut=    40.00 Ry     beta= 0.40
     Davidson diagonalization with overlap
     c_bands:  1 eigenvalues not converged
     c_bands:  1 eigenvalues not converged
     c_bands:  1 eigenvalues not converged
     ethr =  5.20E-09,  avg # of iterations = 14.7

     negative rho (up, down):  3.193E-02 0.000E+00

     total cpu time spent up to now is     1740.0 secs

     total energy              =   -4470.81788745 Ry
     estimated scf accuracy    <       0.00094370 Ry

     iteration #127     ecut=    40.00 Ry     beta= 0.40
     Davidson diagonalization with overlap
     c_bands:  1 eigenvalues not converged
     c_bands:  1 eigenvalues not converged
     c_bands:  1 eigenvalues not converged
     c_bands:  1 eigenvalues not converged
     ethr =  5.20E-09,  avg # of iterations = 17.2

     negative rho (up, down):  3.193E-02 0.000E+00

     total cpu time spent up to now is     1762.2 secs

     total energy              =   -4470.81784237 Ry
     estimated scf accuracy    <       0.00251909 Ry

     iteration #128     ecut=    40.00 Ry     beta= 0.40
     Davidson diagonalization with overlap
     c_bands:  1 eigenvalues not converged
     c_bands:  1 eigenvalues not converged
     c_bands:  1 eigenvalues not converged
     ethr =  5.20E-09,  avg # of iterations = 15.5

     negative rho (up, down):  3.193E-02 0.000E+00

     total cpu time spent up to now is     1782.6 secs

     total energy              =   -4470.81785506 Ry
     estimated scf accuracy    <       0.00078572 Ry

     iteration #129     ecut=    40.00 Ry     beta= 0.40
     Davidson diagonalization with overlap
     c_bands:  1 eigenvalues not converged
     c_bands:  1 eigenvalues not converged
     c_bands:  1 eigenvalues not converged
     ethr =  5.20E-09,  avg # of iterations = 14.8

     negative rho (up, down):  3.193E-02 0.000E+00

     total cpu time spent up to now is     1800.3 secs

     total energy              =   -4470.81786037 Ry
     estimated scf accuracy    <       0.00046690 Ry

     iteration #130     ecut=    40.00 Ry     beta= 0.40
     Davidson diagonalization with overlap
     c_bands:  1 eigenvalues not converged
     c_bands:  1 eigenvalues not converged
     ethr =  5.20E-09,  avg # of iterations =  7.5

     negative rho (up, down):  3.193E-02 0.000E+00

     total cpu time spent up to now is     1812.2 secs

     total energy              =   -4470.81786036 Ry
     estimated scf accuracy    <       0.00045853 Ry

     iteration #131     ecut=    40.00 Ry     beta= 0.40
     Davidson diagonalization with overlap
     c_bands:  1 eigenvalues not converged
     c_bands:  1 eigenvalues not converged
     ethr =  5.20E-09,  avg # of iterations = 10.8

     negative rho (up, down):  3.193E-02 0.000E+00

     total cpu time spent up to now is     1826.7 secs

     total energy              =   -4470.81786267 Ry
     estimated scf accuracy    <       0.00041082 Ry

     iteration #132     ecut=    40.00 Ry     beta= 0.40
     Davidson diagonalization with overlap
     c_bands:  1 eigenvalues not converged
     c_bands:  1 eigenvalues not converged
     ethr =  5.20E-09,  avg # of iterations = 11.7

     negative rho (up, down):  3.193E-02 0.000E+00

     total cpu time spent up to now is     1840.5 secs

     total energy              =   -4470.81786572 Ry
     estimated scf accuracy    <       0.00041388 Ry

     iteration #133     ecut=    40.00 Ry     beta= 0.40
     Davidson diagonalization with overlap
     c_bands:  1 eigenvalues not converged
     c_bands:  1 eigenvalues not converged
     ethr =  5.20E-09,  avg # of iterations =  7.7

     negative rho (up, down):  3.194E-02 0.000E+00

     total cpu time spent up to now is     1852.6 secs

     total energy              =   -4470.81774831 Ry
     estimated scf accuracy    <       0.00040986 Ry

     iteration #134     ecut=    40.00 Ry     beta= 0.40
     Davidson diagonalization with overlap
     c_bands:  2 eigenvalues not converged
     c_bands:  1 eigenvalues not converged
     c_bands:  1 eigenvalues not converged
     c_bands:  1 eigenvalues not converged
     ethr =  5.20E-09,  avg # of iterations = 18.5

     negative rho (up, down):  3.194E-02 0.000E+00

     total cpu time spent up to now is     1883.7 secs

     total energy              =   -4470.81753552 Ry
     estimated scf accuracy    <       0.00900925 Ry

     iteration #135     ecut=    40.00 Ry     beta= 0.40
     Davidson diagonalization with overlap
     c_bands:  2 eigenvalues not converged
     c_bands:  1 eigenvalues not converged
     c_bands:  1 eigenvalues not converged
     c_bands:  2 eigenvalues not converged
     ethr =  5.20E-09,  avg # of iterations = 18.3

     negative rho (up, down):  3.193E-02 0.000E+00

     total cpu time spent up to now is     1914.3 secs

     total energy              =   -4470.81782264 Ry
     estimated scf accuracy    <       0.00202761 Ry

     iteration #136     ecut=    40.00 Ry     beta= 0.40
     Davidson diagonalization with overlap
     c_bands:  1 eigenvalues not converged
     c_bands:  1 eigenvalues not converged
     c_bands:  2 eigenvalues not converged
     ethr =  5.20E-09,  avg # of iterations = 15.8

     negative rho (up, down):  3.193E-02 0.000E+00

     total cpu time spent up to now is     1936.4 secs

     total energy              =   -4470.81788715 Ry
     estimated scf accuracy    <       0.00045131 Ry

     iteration #137     ecut=    40.00 Ry     beta= 0.40
     Davidson diagonalization with overlap
     c_bands:  1 eigenvalues not converged
     c_bands:  1 eigenvalues not converged
     c_bands:  1 eigenvalues not converged
     ethr =  5.20E-09,  avg # of iterations = 11.7

     negative rho (up, down):  3.193E-02 0.000E+00

     total cpu time spent up to now is     1950.0 secs

     total energy              =   -4470.81789305 Ry
     estimated scf accuracy    <       0.00051248 Ry

     iteration #138     ecut=    40.00 Ry     beta= 0.40
     Davidson diagonalization with overlap
     c_bands:  1 eigenvalues not converged
     c_bands:  1 eigenvalues not converged
     ethr =  5.20E-09,  avg # of iterations = 11.7

     negative rho (up, down):  3.193E-02 0.000E+00

     total cpu time spent up to now is     1964.4 secs

     total energy              =   -4470.81790006 Ry
     estimated scf accuracy    <       0.00047192 Ry

     iteration #139     ecut=    40.00 Ry     beta= 0.40
     Davidson diagonalization with overlap
     c_bands:  1 eigenvalues not converged
     c_bands:  1 eigenvalues not converged
     ethr =  5.20E-09,  avg # of iterations =  7.3

     negative rho (up, down):  3.193E-02 0.000E+00

     total cpu time spent up to now is     1976.0 secs

     total energy              =   -4470.81791103 Ry
     estimated scf accuracy    <       0.00052463 Ry

     iteration #140     ecut=    40.00 Ry     beta= 0.40
     Davidson diagonalization with overlap
     c_bands:  1 eigenvalues not converged
     c_bands:  1 eigenvalues not converged
     ethr =  5.20E-09,  avg # of iterations = 13.7

     negative rho (up, down):  3.193E-02 0.000E+00

     total cpu time spent up to now is     1997.4 secs

     total energy              =   -4470.81791653 Ry
     estimated scf accuracy    <       0.00110717 Ry

     iteration #141     ecut=    40.00 Ry     beta= 0.40
     Davidson diagonalization with overlap
     c_bands:  1 eigenvalues not converged
     c_bands:  1 eigenvalues not converged
     ethr =  5.20E-09,  avg # of iterations = 11.8

     negative rho (up, down):  3.194E-02 0.000E+00

     total cpu time spent up to now is     2012.4 secs

     total energy              =   -4470.81795915 Ry
     estimated scf accuracy    <       0.00090731 Ry

     iteration #142     ecut=    40.00 Ry     beta= 0.40
     Davidson diagonalization with overlap
     c_bands:  1 eigenvalues not converged
     c_bands:  1 eigenvalues not converged
     ethr =  5.20E-09,  avg # of iterations = 11.8

     negative rho (up, down):  3.193E-02 0.000E+00

     total cpu time spent up to now is     2028.1 secs

     total energy              =   -4470.81775800 Ry
     estimated scf accuracy    <       0.00124503 Ry

     iteration #143     ecut=    40.00 Ry     beta= 0.40
     Davidson diagonalization with overlap
     c_bands:  1 eigenvalues not converged
     c_bands:  1 eigenvalues not converged
     ethr =  5.20E-09,  avg # of iterations = 18.0

     negative rho (up, down):  3.193E-02 0.000E+00

     total cpu time spent up to now is     2056.2 secs

     total energy              =   -4470.81783348 Ry
     estimated scf accuracy    <       0.00009881 Ry

     iteration #144     ecut=    40.00 Ry     beta= 0.40
     Davidson diagonalization with overlap
     c_bands:  2 eigenvalues not converged
     c_bands:  1 eigenvalues not converged
     c_bands:  1 eigenvalues not converged
     ethr =  5.20E-09,  avg # of iterations = 16.3

     negative rho (up, down):  3.193E-02 0.000E+00

     total cpu time spent up to now is     2078.0 secs

     total energy              =   -4470.81778369 Ry
     estimated scf accuracy    <       0.00051011 Ry

     iteration #145     ecut=    40.00 Ry     beta= 0.40
     Davidson diagonalization with overlap
     c_bands:  1 eigenvalues not converged
     c_bands:  1 eigenvalues not converged
     c_bands:  1 eigenvalues not converged
     ethr =  5.20E-09,  avg # of iterations = 17.2

     negative rho (up, down):  3.193E-02 0.000E+00

     total cpu time spent up to now is     2103.0 secs

     total energy              =   -4470.81785627 Ry
     estimated scf accuracy    <       0.00010120 Ry

     iteration #146     ecut=    40.00 Ry     beta= 0.40
     Davidson diagonalization with overlap
     c_bands:  1 eigenvalues not converged
     c_bands:  1 eigenvalues not converged
     c_bands:  1 eigenvalues not converged
     ethr =  5.20E-09,  avg # of iterations = 15.0

     negative rho (up, down):  3.193E-02 0.000E+00

     total cpu time spent up to now is     2120.9 secs

     total energy              =   -4470.81788062 Ry
     estimated scf accuracy    <       0.00017136 Ry

     iteration #147     ecut=    40.00 Ry     beta= 0.40
     Davidson diagonalization with overlap
     c_bands:  1 eigenvalues not converged
     c_bands:  1 eigenvalues not converged
     ethr =  5.20E-09,  avg # of iterations = 11.3

     negative rho (up, down):  3.193E-02 0.000E+00

     total cpu time spent up to now is     2135.8 secs

     total energy              =   -4470.81788660 Ry
     estimated scf accuracy    <       0.00022820 Ry

     iteration #148     ecut=    40.00 Ry     beta= 0.40
     Davidson diagonalization with overlap
     c_bands:  1 eigenvalues not converged
     c_bands:  1 eigenvalues not converged
     ethr =  5.20E-09,  avg # of iterations = 13.2

     negative rho (up, down):  3.193E-02 0.000E+00

     total cpu time spent up to now is     2153.4 secs

     total energy              =   -4470.81792854 Ry
     estimated scf accuracy    <       0.00080054 Ry

     iteration #149     ecut=    40.00 Ry     beta= 0.40
     Davidson diagonalization with overlap
     c_bands:  1 eigenvalues not converged
     c_bands:  1 eigenvalues not converged
     ethr =  5.20E-09,  avg # of iterations =  9.0

     negative rho (up, down):  3.193E-02 0.000E+00

     total cpu time spent up to now is     2167.5 secs

     total energy              =   -4470.81792092 Ry
     estimated scf accuracy    <       0.00092670 Ry

     iteration #150     ecut=    40.00 Ry     beta= 0.40
     Davidson diagonalization with overlap
     c_bands:  1 eigenvalues not converged
     c_bands:  1 eigenvalues not converged
     ethr =  5.20E-09,  avg # of iterations = 10.0

     negative rho (up, down):  3.193E-02 0.000E+00

     total cpu time spent up to now is     2180.9 secs

     total energy              =   -4470.81789265 Ry
     estimated scf accuracy    <       0.00087018 Ry

     iteration #151     ecut=    40.00 Ry     beta= 0.40
     Davidson diagonalization with overlap
     c_bands:  1 eigenvalues not converged
     c_bands:  1 eigenvalues not converged
     ethr =  5.20E-09,  avg # of iterations = 13.5

     negative rho (up, down):  3.193E-02 0.000E+00

     total cpu time spent up to now is     2199.0 secs

     total energy              =   -4470.81796183 Ry
     estimated scf accuracy    <       0.00057928 Ry

     iteration #152     ecut=    40.00 Ry     beta= 0.40
     Davidson diagonalization with overlap
     c_bands:  1 eigenvalues not converged
     c_bands:  1 eigenvalues not converged
     ethr =  5.20E-09,  avg # of iterations = 14.2

     negative rho (up, down):  3.193E-02 0.000E+00

     total cpu time spent up to now is     2221.2 secs

     total energy              =   -4470.81791480 Ry
     estimated scf accuracy    <       0.00247535 Ry

     iteration #153     ecut=    40.00 Ry     beta= 0.40
     Davidson diagonalization with overlap
     c_bands:  1 eigenvalues not converged
     c_bands:  1 eigenvalues not converged
     ethr =  5.20E-09,  avg # of iterations = 13.0

     negative rho (up, down):  3.193E-02 0.000E+00

     total cpu time spent up to now is     2241.0 secs

     total energy              =   -4470.81795138 Ry
     estimated scf accuracy    <       0.00150444 Ry

     iteration #154     ecut=    40.00 Ry     beta= 0.40
     Davidson diagonalization with overlap
     c_bands:  1 eigenvalues not converged
[...]

     iteration #161     ecut=    40.00 Ry     beta= 0.40
     Davidson diagonalization with overlap
     c_bands:  1 eigenvalues not converged
     c_bands:  1 eigenvalues not converged
     ethr =  5.20E-09,  avg # of iterations =  8.0

     negative rho (up, down):  3.193E-02 0.000E+00

     total cpu time spent up to now is     2408.6 secs

     total energy              =   -4470.81789034 Ry
     estimated scf accuracy    <       0.00023540 Ry

     iteration #162     ecut=    40.00 Ry     beta= 0.40
     Davidson diagonalization with overlap
     c_bands:  1 eigenvalues not converged
     c_bands:  1 eigenvalues not converged
     ethr =  5.20E-09,  avg # of iterations =  7.3

     negative rho (up, down):  3.193E-02 0.000E+00

     total cpu time spent up to now is     2420.4 secs

     total energy              =   -4470.81788819 Ry
     estimated scf accuracy    <       0.00032585 Ry

     iteration #163     ecut=    40.00 Ry     beta= 0.40
     Davidson diagonalization with overlap
     c_bands:  1 eigenvalues not converged
     c_bands:  1 eigenvalues not converged
     ethr =  5.20E-09,  avg # of iterations = 11.7

     negative rho (up, down):  3.193E-02 0.000E+00

     total cpu time spent up to now is     2434.9 secs

     total energy              =   -4470.81789708 Ry
     estimated scf accuracy    <       0.00028074 Ry

     iteration #164     ecut=    40.00 Ry     beta= 0.40
     Davidson diagonalization with overlap
     c_bands:  1 eigenvalues not converged
     c_bands:  1 eigenvalues not converged
     ethr =  5.20E-09,  avg # of iterations =  8.0

     negative rho (up, down):  3.193E-02 0.000E+00

     total cpu time spent up to now is     2447.6 secs

     total energy              =   -4470.81785715 Ry
     estimated scf accuracy    <       0.00034857 Ry

     iteration #165     ecut=    40.00 Ry     beta= 0.40
     Davidson diagonalization with overlap
     c_bands:  1 eigenvalues not converged
     c_bands:  1 eigenvalues not converged
     ethr =  5.20E-09,  avg # of iterations = 14.2

     negative rho (up, down):  3.193E-02 0.000E+00

     total cpu time spent up to now is     2468.9 secs

     total energy              =   -4470.81787392 Ry
     estimated scf accuracy    <       0.00009010 Ry

     iteration #166     ecut=    40.00 Ry     beta= 0.40
     Davidson diagonalization with overlap
     c_bands:  1 eigenvalues not converged
     c_bands:  1 eigenvalues not converged
     ethr =  5.20E-09,  avg # of iterations =  9.5

     negative rho (up, down):  3.193E-02 0.000E+00

     total cpu time spent up to now is     2482.2 secs

     total energy              =   -4470.81787630 Ry
     estimated scf accuracy    <       0.00008494 Ry

     iteration #167     ecut=    40.00 Ry     beta= 0.40
     Davidson diagonalization with overlap
     c_bands:  1 eigenvalues not converged
     c_bands:  1 eigenvalues not converged
     ethr =  5.20E-09,  avg # of iterations = 11.2

     negative rho (up, down):  3.193E-02 0.000E+00

     total cpu time spent up to now is     2497.3 secs

     total energy              =   -4470.81787554 Ry
     estimated scf accuracy    <       0.00010124 Ry

     iteration #168     ecut=    40.00 Ry     beta= 0.40
     Davidson diagonalization with overlap
     c_bands:  1 eigenvalues not converged
     c_bands:  1 eigenvalues not converged
     ethr =  5.20E-09,  avg # of iterations =  9.0

     negative rho (up, down):  3.193E-02 0.000E+00

     total cpu time spent up to now is     2511.4 secs

     total energy              =   -4470.81786115 Ry
     estimated scf accuracy    <       0.00008586 Ry

     iteration #169     ecut=    40.00 Ry     beta= 0.40
     Davidson diagonalization with overlap
     c_bands:  1 eigenvalues not converged
     c_bands:  1 eigenvalues not converged
     ethr =  5.20E-09,  avg # of iterations = 14.3

     negative rho (up, down):  3.193E-02 0.000E+00

     total cpu time spent up to now is     2533.0 secs

     total energy              =   -4470.81786676 Ry
     estimated scf accuracy    <       0.00009379 Ry

     iteration #170     ecut=    40.00 Ry     beta= 0.40
     Davidson diagonalization with overlap
     c_bands:  1 eigenvalues not converged
     c_bands:  1 eigenvalues not converged
     ethr =  5.20E-09,  avg # of iterations = 11.5

     negative rho (up, down):  3.193E-02 0.000E+00

     total cpu time spent up to now is     2549.4 secs

     total energy              =   -4470.81787491 Ry
     estimated scf accuracy    <       0.00001473 Ry

     iteration #171     ecut=    40.00 Ry     beta= 0.40
     Davidson diagonalization with overlap
     c_bands:  1 eigenvalues not converged
     c_bands:  1 eigenvalues not converged
     ethr =  2.71E-09,  avg # of iterations =  8.5

     negative rho (up, down):  3.193E-02 0.000E+00

     total cpu time spent up to now is     2563.6 secs

     total energy              =   -4470.81787689 Ry
     estimated scf accuracy    <       0.00001728 Ry

     iteration #172     ecut=    40.00 Ry     beta= 0.40
     Davidson diagonalization with overlap
     c_bands:  1 eigenvalues not converged
     c_bands:  1 eigenvalues not converged
     ethr =  2.71E-09,  avg # of iterations =  7.3

     negative rho (up, down):  3.193E-02 0.000E+00

     total cpu time spent up to now is     2575.2 secs

     total energy              =   -4470.81787608 Ry
     estimated scf accuracy    <       0.00002596 Ry

     iteration #173     ecut=    40.00 Ry     beta= 0.40
     Davidson diagonalization with overlap
     c_bands:  1 eigenvalues not converged
     c_bands:  1 eigenvalues not converged
     ethr =  2.71E-09,  avg # of iterations = 11.2

     negative rho (up, down):  3.193E-02 0.000E+00

     total cpu time spent up to now is     2589.0 secs

     total energy              =   -4470.81787540 Ry
     estimated scf accuracy    <       0.00002351 Ry

     iteration #174     ecut=    40.00 Ry     beta= 0.40
     Davidson diagonalization with overlap
     c_bands:  1 eigenvalues not converged
     c_bands:  1 eigenvalues not converged
     ethr =  2.71E-09,  avg # of iterations = 11.3

     negative rho (up, down):  3.193E-02 0.000E+00

     total cpu time spent up to now is     2603.6 secs

     total energy              =   -4470.81787681 Ry
     estimated scf accuracy    <       0.00001921 Ry

     iteration #175     ecut=    40.00 Ry     beta= 0.40
     Davidson diagonalization with overlap
     c_bands:  1 eigenvalues not converged
     ethr =  2.71E-09,  avg # of iterations =  4.3

     negative rho (up, down):  3.193E-02 0.000E+00

     total cpu time spent up to now is     2614.4 secs

     total energy              =   -4470.81787734 Ry
     estimated scf accuracy    <       0.00002180 Ry

     iteration #176     ecut=    40.00 Ry     beta= 0.40
     Davidson diagonalization with overlap
     c_bands:  1 eigenvalues not converged
     ethr =  2.71E-09,  avg # of iterations =  4.2

     negative rho (up, down):  3.193E-02 0.000E+00

     total cpu time spent up to now is     2625.0 secs

     total energy              =   -4470.81787756 Ry
     estimated scf accuracy    <       0.00002711 Ry

     iteration #177     ecut=    40.00 Ry     beta= 0.40
     Davidson diagonalization with overlap
     c_bands:  1 eigenvalues not converged
     ethr =  2.71E-09,  avg # of iterations =  4.5

     negative rho (up, down):  3.193E-02 0.000E+00

     total cpu time spent up to now is     2640.9 secs

     total energy              =   -4470.81787801 Ry
     estimated scf accuracy    <       0.00003068 Ry

     iteration #178     ecut=    40.00 Ry     beta= 0.40
     Davidson diagonalization with overlap
     c_bands:  1 eigenvalues not converged
     ethr =  2.71E-09,  avg # of iterations =  4.2

     negative rho (up, down):  3.193E-02 0.000E+00

     total cpu time spent up to now is     2651.5 secs

     total energy              =   -4470.81787637 Ry
     estimated scf accuracy    <       0.00003741 Ry

     iteration #179     ecut=    40.00 Ry     beta= 0.40
     Davidson diagonalization with overlap
     c_bands:  1 eigenvalues not converged
     c_bands:  1 eigenvalues not converged
     ethr =  2.71E-09,  avg # of iterations = 12.0

     negative rho (up, down):  3.193E-02 0.000E+00

     total cpu time spent up to now is     2666.8 secs

     total energy              =   -4470.81787784 Ry
     estimated scf accuracy    <       0.00003107 Ry

     iteration #180     ecut=    40.00 Ry     beta= 0.40
     Davidson diagonalization with overlap
     c_bands:  1 eigenvalues not converged
     c_bands:  1 eigenvalues not converged
     ethr =  2.71E-09,  avg # of iterations =  9.0

     negative rho (up, down):  3.193E-02 0.000E+00

     total cpu time spent up to now is     2679.7 secs

     total energy              =   -4470.81788051 Ry
     estimated scf accuracy    <       0.00003975 Ry

     iteration #181     ecut=    40.00 Ry     beta= 0.40
     Davidson diagonalization with overlap
     c_bands:  1 eigenvalues not converged
     ethr =  2.71E-09,  avg # of iterations = 11.2

     negative rho (up, down):  3.193E-02 0.000E+00

     total cpu time spent up to now is     2693.6 secs

     total energy              =   -4470.81787857 Ry
     estimated scf accuracy    <       0.00007024 Ry

     iteration #182     ecut=    40.00 Ry     beta= 0.40
     Davidson diagonalization with overlap
     c_bands:  1 eigenvalues not converged
     ethr =  2.71E-09,  avg # of iterations = 10.0

     negative rho (up, down):  3.193E-02 0.000E+00

     total cpu time spent up to now is     2707.4 secs

     total energy              =   -4470.81788438 Ry
     estimated scf accuracy    <       0.00005698 Ry

     iteration #183     ecut=    40.00 Ry     beta= 0.40
     Davidson diagonalization with overlap
     c_bands:  1 eigenvalues not converged
     ethr =  2.71E-09,  avg # of iterations = 10.7

     negative rho (up, down):  3.193E-02 0.000E+00

     total cpu time spent up to now is     2721.7 secs

     total energy              =   -4470.81788928 Ry
     estimated scf accuracy    <       0.00022458 Ry

     iteration #184     ecut=    40.00 Ry     beta= 0.40
     Davidson diagonalization with overlap
     c_bands:  1 eigenvalues not converged
     ethr =  2.71E-09,  avg # of iterations =  4.3

     negative rho (up, down):  3.193E-02 0.000E+00

     total cpu time spent up to now is     2732.5 secs

     total energy              =   -4470.81788470 Ry
     estimated scf accuracy    <       0.00023844 Ry

     iteration #185     ecut=    40.00 Ry     beta= 0.40
     Davidson diagonalization with overlap
     c_bands:  1 eigenvalues not converged
     ethr =  2.71E-09,  avg # of iterations =  8.0

     negative rho (up, down):  3.193E-02 0.000E+00

     total cpu time spent up to now is     2745.5 secs

     total energy              =   -4470.81788514 Ry
     estimated scf accuracy    <       0.00022142 Ry

     iteration #186     ecut=    40.00 Ry     beta= 0.40
     Davidson diagonalization with overlap
     c_bands:  1 eigenvalues not converged
     ethr =  2.71E-09,  avg # of iterations =  6.2

     negative rho (up, down):  3.193E-02 0.000E+00

     total cpu time spent up to now is     2757.4 secs

     total energy              =   -4470.81788231 Ry
     estimated scf accuracy    <       0.00021862 Ry

     iteration #187     ecut=    40.00 Ry     beta= 0.40
     Davidson diagonalization with overlap
     c_bands:  1 eigenvalues not converged
     ethr =  2.71E-09,  avg # of iterations =  5.5

     negative rho (up, down):  3.193E-02 0.000E+00

     total cpu time spent up to now is     2769.2 secs

     total energy              =   -4470.81787862 Ry
     estimated scf accuracy    <       0.00021666 Ry

     iteration #188     ecut=    40.00 Ry     beta= 0.40
     Davidson diagonalization with overlap
     c_bands:  1 eigenvalues not converged
     ethr =  2.71E-09,  avg # of iterations = 10.8

     negative rho (up, down):  3.193E-02 0.000E+00

     total cpu time spent up to now is     2783.7 secs

     total energy              =   -4470.81788372 Ry
     estimated scf accuracy    <       0.00019577 Ry

     iteration #189     ecut=    40.00 Ry     beta= 0.40
     Davidson diagonalization with overlap
     c_bands:  1 eigenvalues not converged
     ethr =  2.71E-09,  avg # of iterations =  8.0

     negative rho (up, down):  3.193E-02 0.000E+00

     total cpu time spent up to now is     2796.4 secs

     total energy              =   -4470.81788239 Ry
     estimated scf accuracy    <       0.00023904 Ry

     iteration #190     ecut=    40.00 Ry     beta= 0.40
     Davidson diagonalization with overlap
     c_bands:  1 eigenvalues not converged
     ethr =  2.71E-09,  avg # of iterations =  4.8

     negative rho (up, down):  3.193E-02 0.000E+00

     total cpu time spent up to now is     2807.7 secs

     total energy              =   -4470.81787530 Ry
     estimated scf accuracy    <       0.00023609 Ry

     iteration #191     ecut=    40.00 Ry     beta= 0.40
     Davidson diagonalization with overlap
     c_bands:  1 eigenvalues not converged
     c_bands:  1 eigenvalues not converged
     ethr =  2.71E-09,  avg # of iterations = 13.0

     negative rho (up, down):  3.193E-02 0.000E+00

     total cpu time spent up to now is     2823.0 secs

     total energy              =   -4470.81786001 Ry
     estimated scf accuracy    <       0.00022638 Ry

     iteration #192     ecut=    40.00 Ry     beta= 0.40
     Davidson diagonalization with overlap
     c_bands:  1 eigenvalues not converged
     c_bands:  1 eigenvalues not converged
     ethr =  2.71E-09,  avg # of iterations = 15.2

     negative rho (up, down):  3.193E-02 0.000E+00

     total cpu time spent up to now is     2843.4 secs

     total energy              =   -4470.81786237 Ry
     estimated scf accuracy    <       0.00008503 Ry

     iteration #193     ecut=    40.00 Ry     beta= 0.40
     Davidson diagonalization with overlap
     c_bands:  2 eigenvalues not converged
     c_bands:  1 eigenvalues not converged
     c_bands:  1 eigenvalues not converged
     ethr =  2.71E-09,  avg # of iterations = 18.0

     negative rho (up, down):  3.194E-02 0.000E+00

     total cpu time spent up to now is     2865.7 secs

     total energy              =   -4470.81784354 Ry
     estimated scf accuracy    <       0.00017921 Ry

     iteration #194     ecut=    40.00 Ry     beta= 0.40
     Davidson diagonalization with overlap
     c_bands:  1 eigenvalues not converged
     c_bands:  1 eigenvalues not converged
     c_bands:  1 eigenvalues not converged
     c_bands:  1 eigenvalues not converged
     c_bands:  2 eigenvalues not converged
     c_bands:  1 eigenvalues not converged
     ethr =  2.71E-09,  avg # of iterations = 20.0

     negative rho (up, down):  3.193E-02 0.000E+00

     total cpu time spent up to now is     2896.5 secs

     total energy              =   -4470.81789524 Ry
     estimated scf accuracy    <       0.00124773 Ry

     iteration #195     ecut=    40.00 Ry     beta= 0.40
     Davidson diagonalization with overlap
     c_bands:  1 eigenvalues not converged
     ethr =  2.71E-09,  avg # of iterations = 16.2

     negative rho (up, down):  3.193E-02 0.000E+00

     total cpu time spent up to now is     2917.9 secs

     total energy              =   -4470.81787057 Ry
     estimated scf accuracy    <       0.00073579 Ry

     iteration #196     ecut=    40.00 Ry     beta= 0.40
     Davidson diagonalization with overlap
     c_bands:  1 eigenvalues not converged
     c_bands:  1 eigenvalues not converged
     ethr =  2.71E-09,  avg # of iterations = 19.2

     negative rho (up, down):  3.193E-02 0.000E+00

     total cpu time spent up to now is     2943.5 secs

     total energy              =   -4470.81787857 Ry
     estimated scf accuracy    <       0.00028751 Ry

     iteration #197     ecut=    40.00 Ry     beta= 0.40
     Davidson diagonalization with overlap
     c_bands:  1 eigenvalues not converged
     ethr =  2.71E-09,  avg # of iterations =  9.8

     negative rho (up, down):  3.193E-02 0.000E+00

     total cpu time spent up to now is     2957.7 secs

     total energy              =   -4470.81785653 Ry
     estimated scf accuracy    <       0.00018293 Ry

     iteration #198     ecut=    40.00 Ry     beta= 0.40
     Davidson diagonalization with overlap
     c_bands:  1 eigenvalues not converged
     ethr =  2.71E-09,  avg # of iterations = 13.3

     negative rho (up, down):  3.193E-02 0.000E+00

     total cpu time spent up to now is     2979.1 secs

     total energy              =   -4470.81786858 Ry
     estimated scf accuracy    <       0.00003915 Ry

     iteration #199     ecut=    40.00 Ry     beta= 0.40
     Davidson diagonalization with overlap
     c_bands:  1 eigenvalues not converged
     ethr =  2.71E-09,  avg # of iterations =  4.8

     negative rho (up, down):  3.193E-02 0.000E+00

     total cpu time spent up to now is     2990.5 secs

     total energy              =   -4470.81787163 Ry
     estimated scf accuracy    <       0.00003542 Ry

     iteration #200     ecut=    40.00 Ry     beta= 0.40
     Davidson diagonalization with overlap
     c_bands:  1 eigenvalues not converged
     ethr =  2.71E-09,  avg # of iterations = 10.2

     negative rho (up, down):  3.193E-02 0.000E+00

     total cpu time spent up to now is     3005.3 secs

     total energy              =   -4470.81786838 Ry
     estimated scf accuracy    <       0.00008033 Ry

     End of self-consistent calculation

     convergence NOT achieved after 200 iterations: stopping

     Writing config to output data dir ./QE_output/TiN.save/ :
     XML data file, charge density

     init_run     :      6.83s CPU      7.42s WALL (       1 calls)
     electrons    :   2835.92s CPU   2997.92s WALL (       1 calls)

     Called by init_run:
     wfcinit      :      5.32s CPU      5.80s WALL (       1 calls)
     potinit      :      0.31s CPU      0.32s WALL (       1 calls)
     hinit0       :      0.51s CPU      0.54s WALL (       1 calls)

     Called by electrons:
     c_bands      :   2492.60s CPU   2619.35s WALL (     200 calls)
     sum_band     :    268.64s CPU    289.26s WALL (     200 calls)
     v_of_rho     :      7.57s CPU      9.05s WALL (     201 calls)
     newd         :     33.80s CPU     39.16s WALL (     201 calls)
     mix_rho      :     31.89s CPU     39.15s WALL (     200 calls)
     energy_dftd3 :      0.25s CPU      0.25s WALL (       1 calls)

     Called by c_bands:
     init_us_2    :     26.38s CPU     26.92s WALL (    2406 calls)
     cegterg      :   2429.10s CPU   2554.05s WALL (    1200 calls)

     Called by *egterg:
     cdiaghg      :    514.31s CPU    539.30s WALL (   12008 calls)
     h_psi        :   1017.63s CPU   1075.75s WALL (   12014 calls)
     s_psi        :    224.18s CPU    227.39s WALL (   12014 calls)
     g_psi        :      3.39s CPU      3.52s WALL (   10808 calls)

     Called by h_psi:
     h_psi:calbec :    285.62s CPU    298.66s WALL (   12014 calls)
     vloc_psi     :    495.53s CPU    532.67s WALL (   12014 calls)
     add_vuspsi   :    231.84s CPU    236.84s WALL (   12014 calls)

     General routines
     calbec       :    384.12s CPU    402.03s WALL (   13214 calls)
     fft          :      5.41s CPU      6.74s WALL (    2613 calls)
     ffts         :     14.52s CPU     18.98s WALL (   24781 calls)
     fftw         :    523.95s CPU    563.86s WALL ( 1842010 calls)
     interpolate  :      0.87s CPU      1.03s WALL (     201 calls)
     davcio       :      0.00s CPU      0.02s WALL (      24 calls)

     Parallel routines

     PWSCF        :  47m23.01s CPU  50m 6.47s WALL


   This run was terminated on:  17:39:42  31May2025            

=------------------------------------------------------------------------------=
   JOB DONE.
=------------------------------------------------------------------------------=
