
     Program PWSCF v.7.2 starts on  4Apr2024 at 13:17: 0 

     This program is part of the open-source Quantum ESPRESSO suite
     for quantum simulation of materials; please cite
         "P. Giannozzi et al., J. Phys.:Condens. Matter 21 395502 (2009);
         "P. Giannozzi et al., J. Phys.:Condens. Matter 29 465901 (2017);
         "P. Giannozzi et al., J. Chem. Phys. 152 154105 (2020);
          URL http://www.quantum-espresso.org", 
     in publications or presentations arising from this work. More details at
     http://www.quantum-espresso.org/quote

     Parallel version (MPI & OpenMP), running on      30 processor cores
     Number of MPI processes:                30
     Threads/MPI process:                     1

     MPI processes distributed on     3 nodes
     120795 MiB available memory on the printing compute node when the environment starts
 
     Reading input from TiN_slab_D3.in
Warning: card &CELL ignored
Warning: card / ignored

     Current dimensions of program PWSCF are:
     Max number of different atomic species (ntypx) = 10
     Max number of k-points (npk) = 120000
     Max angular momentum in pseudopotentials (lmaxx) =  4

     IMPORTANT: XC functional enforced from input :
     Exchange-correlation= PBE
                           (   1   4   3   4   0   0   0)
     Any further DFT definition will be discarded
     Please, verify this is what you really want

     Found identity + (  0.2500  0.2500  0.0000) symmetry
     This is a supercell, fractional translations are disabled
     Message from routine setup:
     using ibrav=0 with symmetry is DISCOURAGED, use correct ibrav instead
 
     K-points division:     npool     =       3
     R & G space division:  proc/nbgrp/npool/nimage =      10
     Subspace diagonalization in iterative solution of the eigenvalue problem:
     one sub-group per band group will be used
     scalapack distributed-memory algorithm (size of sub-group:  3*  3 procs)

 
     Parallelization info
     --------------------
     sticks:   dense  smooth     PW     G-vecs:    dense   smooth      PW
     Min         624     333     87               114674    44679    6077
     Max         628     335     88               114677    44683    6090
     Sum        6253    3341    877              1146751   446805   60851
 
     Using Slab Decomposition
 


     bravais-lattice index     =            0
     lattice parameter (alat)  =      16.1801  a.u.
     unit-cell volume          =   13071.3186 (a.u.)^3
     number of atoms/cell      =           64
     number of atomic types    =            2
     number of electrons       =       544.00
     number of Kohn-Sham states=          326
     kinetic-energy cutoff     =      40.0000  Ry
     charge density cutoff     =     300.0000  Ry
     scf convergence threshold =      1.0E-08
     mixing beta               =       0.3000
     number of iterations used =            8  TF        mixing
     energy convergence thresh.=      1.0E-04
     force convergence thresh. =      7.3E-04
     Exchange-correlation= PBE
                           (   1   4   3   4   0   0   0)
     nstep                     =           50


     celldm(1)=  16.180082  celldm(2)=   0.000000  celldm(3)=   0.000000
     celldm(4)=   0.000000  celldm(5)=   0.000000  celldm(6)=   0.000000

     crystal axes: (cart. coord. in units of alat)
               a(1) = (   1.000000   0.000000   0.000000 )  
               a(2) = (   0.000000   1.000000   0.000000 )  
               a(3) = (   0.000000   0.000000   3.085867 )  

     reciprocal axes: (cart. coord. in units 2 pi/alat)
               b(1) = (  1.000000  0.000000  0.000000 )  
               b(2) = (  0.000000  1.000000  0.000000 )  
               b(3) = (  0.000000  0.000000  0.324058 )  


     PseudoPot. # 1 for Ti read from file:
     ./US_PBE_PP/ti_pbe_v1.4.uspp.F.UPF
     MD5 check sum: 88a00a6731bd790ddea75d31a80cb452
     Pseudo is Ultrasoft + core correction, Zval = 12.0
     Generated by new atomic code, or converted to UPF format
     Using radial grid of  851 points,  6 beta functions with: 
                l(1) =   0
                l(2) =   0
                l(3) =   1
                l(4) =   1
                l(5) =   2
                l(6) =   2
     Q(r) pseudized with  6 coefficients,  rinner =    1.000   1.000   1.000
                                                       1.000   1.000

     PseudoPot. # 2 for N  read from file:
     ./US_PBE_PP/n_pbe_v1.2.uspp.F.UPF
     MD5 check sum: 95339753478d7afb44899504a8723017
     Pseudo is Ultrasoft + core correction, Zval =  5.0
     Generated by new atomic code, or converted to UPF format
     Using radial grid of  729 points,  4 beta functions with: 
                l(1) =   0
                l(2) =   0
                l(3) =   1
                l(4) =   1
     Q(r) pseudized with  8 coefficients,  rinner =    0.900   0.900   0.900


     atomic species   valence    mass     pseudopotential
        Ti            12.00    47.86700     Ti( 1.00)
        N              5.00    14.00700     N ( 1.00)

      8 Sym. Ops. (no inversion) found



   Cartesian axes

     site n.     atom                  positions (alat units)
         1           Ti  tau(   1) = (   0.0000000   0.0000000   1.1679336  )
         2           Ti  tau(   2) = (   0.2500000   0.0000000   1.4179336  )
         3           Ti  tau(   3) = (   0.0000000   0.2500000   1.4179336  )
         4           Ti  tau(   4) = (   0.2500000   0.2500000   1.1679336  )
         5           N   tau(   5) = (   0.0000000   0.2500000   1.1679336  )
         6           N   tau(   6) = (   0.0000000   0.0000000   1.4179336  )
         7           N   tau(   7) = (   0.2500000   0.0000000   1.1679336  )
         8           N   tau(   8) = (   0.2500000   0.2500000   1.4179336  )
         9           Ti  tau(   9) = (   0.0000000   0.0000000   1.6679336  )
        10           Ti  tau(  10) = (   0.2500000   0.0000000   1.9179336  )
        11           Ti  tau(  11) = (   0.0000000   0.2500000   1.9179336  )
        12           Ti  tau(  12) = (   0.2500000   0.2500000   1.6679336  )
        13           N   tau(  13) = (   0.0000000   0.2500000   1.6679336  )
        14           N   tau(  14) = (   0.0000000   0.0000000   1.9179336  )
        15           N   tau(  15) = (   0.2500000   0.0000000   1.6679336  )
        16           N   tau(  16) = (   0.2500000   0.2500000   1.9179336  )
        17           Ti  tau(  17) = (   0.0000000   0.5000000   1.1679336  )
        18           Ti  tau(  18) = (   0.2500000   0.5000000   1.4179336  )
        19           Ti  tau(  19) = (   0.0000000   0.7500000   1.4179336  )
        20           Ti  tau(  20) = (   0.2500000   0.7500000   1.1679336  )
        21           N   tau(  21) = (   0.0000000   0.7500000   1.1679336  )
        22           N   tau(  22) = (   0.0000000   0.5000000   1.4179336  )
        23           N   tau(  23) = (   0.2500000   0.5000000   1.1679336  )
        24           N   tau(  24) = (   0.2500000   0.7500000   1.4179336  )
        25           Ti  tau(  25) = (   0.0000000   0.5000000   1.6679336  )
        26           Ti  tau(  26) = (   0.2500000   0.5000000   1.9179336  )
        27           Ti  tau(  27) = (   0.0000000   0.7500000   1.9179336  )
        28           Ti  tau(  28) = (   0.2500000   0.7500000   1.6679336  )
        29           N   tau(  29) = (   0.0000000   0.7500000   1.6679336  )
        30           N   tau(  30) = (   0.0000000   0.5000000   1.9179336  )
        31           N   tau(  31) = (   0.2500000   0.5000000   1.6679336  )
        32           N   tau(  32) = (   0.2500000   0.7500000   1.9179336  )
        33           Ti  tau(  33) = (   0.5000000   0.0000000   1.1679336  )
        34           Ti  tau(  34) = (   0.7500000   0.0000000   1.4179336  )
        35           Ti  tau(  35) = (   0.5000000   0.2500000   1.4179336  )
        36           Ti  tau(  36) = (   0.7500000   0.2500000   1.1679336  )
        37           N   tau(  37) = (   0.5000000   0.2500000   1.1679336  )
        38           N   tau(  38) = (   0.5000000   0.0000000   1.4179336  )
        39           N   tau(  39) = (   0.7500000   0.0000000   1.1679336  )
        40           N   tau(  40) = (   0.7500000   0.2500000   1.4179336  )
        41           Ti  tau(  41) = (   0.5000000   0.0000000   1.6679336  )
        42           Ti  tau(  42) = (   0.7500000   0.0000000   1.9179336  )
        43           Ti  tau(  43) = (   0.5000000   0.2500000   1.9179336  )
        44           Ti  tau(  44) = (   0.7500000   0.2500000   1.6679336  )
        45           N   tau(  45) = (   0.5000000   0.2500000   1.6679336  )
        46           N   tau(  46) = (   0.5000000   0.0000000   1.9179336  )
        47           N   tau(  47) = (   0.7500000   0.0000000   1.6679336  )
        48           N   tau(  48) = (   0.7500000   0.2500000   1.9179336  )
        49           Ti  tau(  49) = (   0.5000000   0.5000000   1.1679336  )
        50           Ti  tau(  50) = (   0.7500000   0.5000000   1.4179336  )
        51           Ti  tau(  51) = (   0.5000000   0.7500000   1.4179336  )
        52           Ti  tau(  52) = (   0.7500000   0.7500000   1.1679336  )
        53           N   tau(  53) = (   0.5000000   0.7500000   1.1679336  )
        54           N   tau(  54) = (   0.5000000   0.5000000   1.4179336  )
        55           N   tau(  55) = (   0.7500000   0.5000000   1.1679336  )
        56           N   tau(  56) = (   0.7500000   0.7500000   1.4179336  )
        57           Ti  tau(  57) = (   0.5000000   0.5000000   1.6679336  )
        58           Ti  tau(  58) = (   0.7500000   0.5000000   1.9179336  )
        59           Ti  tau(  59) = (   0.5000000   0.7500000   1.9179336  )
        60           Ti  tau(  60) = (   0.7500000   0.7500000   1.6679336  )
        61           N   tau(  61) = (   0.5000000   0.7500000   1.6679336  )
        62           N   tau(  62) = (   0.5000000   0.5000000   1.9179336  )
        63           N   tau(  63) = (   0.7500000   0.5000000   1.6679336  )
        64           N   tau(  64) = (   0.7500000   0.7500000   1.9179336  )

     --------------------------------------------
     DFT-D3 Dispersion Correction (3-body terms):
     --------------------------------------------
       Reference C6 values for interpolation: 

         atom   Coordination number   C6
         N          0.000            50.54
         N          0.994            44.25
         N          2.014            39.35
         N          2.990            31.16
         Ti         0.000          2723.84
         Ti         1.830           604.00
         Ti         3.868           643.18

       Values used:

         atom   Coordination number  R0_AB[au]  C6      C8
         Ti        11.142            3.557    643.18  76289.64
         Ti        15.226            3.557    643.18  76289.64
         Ti        15.226            3.557    643.18  76289.64
         Ti        11.142            3.557    643.18  76289.64
         N          4.876            2.478     31.16    687.49
         N          5.880            2.478     31.16    687.49
         N          4.876            2.478     31.16    687.49
         N          5.880            2.478     31.16    687.49
         Ti        15.226            3.557    643.18  76289.64
         Ti        11.142            3.557    643.18  76289.64
         Ti        11.142            3.557    643.18  76289.64
         Ti        15.226            3.557    643.18  76289.64
         N          5.880            2.478     31.16    687.49
         N          4.876            2.478     31.16    687.49
         N          5.880            2.478     31.16    687.49
         N          4.876            2.478     31.16    687.49
         Ti        11.142            3.557    643.18  76289.64
         Ti        15.226            3.557    643.18  76289.64
         Ti        15.226            3.557    643.18  76289.64
         Ti        11.142            3.557    643.18  76289.64
         N          4.876            2.478     31.16    687.49
         N          5.880            2.478     31.16    687.49
         N          4.876            2.478     31.16    687.49
         N          5.880            2.478     31.16    687.49
         Ti        15.226            3.557    643.18  76289.64
         Ti        11.142            3.557    643.18  76289.64
         Ti        11.142            3.557    643.18  76289.64
         Ti        15.226            3.557    643.18  76289.64
         N          5.880            2.478     31.16    687.49
         N          4.876            2.478     31.16    687.49
         N          5.880            2.478     31.16    687.49
         N          4.876            2.478     31.16    687.49
         Ti        11.142            3.557    643.18  76289.64
         Ti        15.226            3.557    643.18  76289.64
         Ti        15.226            3.557    643.18  76289.64
         Ti        11.142            3.557    643.18  76289.64
         N          4.876            2.478     31.16    687.49
         N          5.880            2.478     31.16    687.49
         N          4.876            2.478     31.16    687.49
         N          5.880            2.478     31.16    687.49
         Ti        15.226            3.557    643.18  76289.64
         Ti        11.142            3.557    643.18  76289.64
         Ti        11.142            3.557    643.18  76289.64
         Ti        15.226            3.557    643.18  76289.64
         N          5.880            2.478     31.16    687.49
         N          4.876            2.478     31.16    687.49
         N          5.880            2.478     31.16    687.49
         N          4.876            2.478     31.16    687.49
         Ti        11.142            3.557    643.18  76289.64
         Ti        15.226            3.557    643.18  76289.64
         Ti        15.226            3.557    643.18  76289.64
         Ti        11.142            3.557    643.18  76289.64
         N          4.876            2.478     31.16    687.49
         N          5.880            2.478     31.16    687.49
         N          4.876            2.478     31.16    687.49
         N          5.880            2.478     31.16    687.49
         Ti        15.226            3.557    643.18  76289.64
         Ti        11.142            3.557    643.18  76289.64
         Ti        11.142            3.557    643.18  76289.64
         Ti        15.226            3.557    643.18  76289.64
         N          5.880            2.478     31.16    687.49
         N          4.876            2.478     31.16    687.49
         N          5.880            2.478     31.16    687.49
         N          4.876            2.478     31.16    687.49

         Molecular C6 ( Ry / a.u.^6 ) =    961929.42


     number of k points=     3  Gaussian smearing, width (Ry)=  0.0100
                       cart. coord. in units 2pi/alat
        k(    1) = (   0.0000000   0.0000000   0.0000000), wk =   0.2222222
        k(    2) = (   0.0000000   0.3333333   0.0000000), wk =   0.8888889
        k(    3) = (   0.3333333   0.3333333   0.0000000), wk =   0.8888889

     Dense  grid:  1146751 G-vectors     FFT dimensions: (  90,  90, 288)

     Smooth grid:   446805 G-vectors     FFT dimensions: (  72,  72, 216)

     Estimated max dynamical RAM per process >     341.18 MB

     Estimated total dynamical RAM >       9.45 GB

     Check: negative core charge=   -0.000005

     Initial potential from superposition of free atoms

     starting charge     511.9983, renormalised to     544.0000

     negative rho (up, down):  5.906E-02 0.000E+00
     Starting wfcs are  448 randomized atomic wfcs

     total cpu time spent up to now is        8.3 secs

     Self-consistent Calculation

     iteration #  1     ecut=    40.00 Ry     beta= 0.30
     Davidson diagonalization with overlap
     ethr =  1.00E-02,  avg # of iterations =  4.0

     negative rho (up, down):  5.415E-02 0.000E+00

     total cpu time spent up to now is       18.9 secs

     total energy              =   -4467.76202698 Ry
     estimated scf accuracy    <      22.56062611 Ry

     iteration #  2     ecut=    40.00 Ry     beta= 0.30
     Davidson diagonalization with overlap
     ethr =  4.15E-03,  avg # of iterations =  2.0

     negative rho (up, down):  4.893E-02 0.000E+00

     total cpu time spent up to now is       26.9 secs

     total energy              =   -4467.13504706 Ry
     estimated scf accuracy    <       5.35794993 Ry

     iteration #  3     ecut=    40.00 Ry     beta= 0.30
     Davidson diagonalization with overlap
     ethr =  9.85E-04,  avg # of iterations =  5.0

     negative rho (up, down):  4.366E-02 0.000E+00

     total cpu time spent up to now is       36.9 secs

     total energy              =   -4468.16469556 Ry
     estimated scf accuracy    <       1.63366303 Ry

     iteration #  4     ecut=    40.00 Ry     beta= 0.30
     Davidson diagonalization with overlap
     ethr =  3.00E-04,  avg # of iterations =  5.7

     negative rho (up, down):  4.210E-02 0.000E+00

     total cpu time spent up to now is       46.6 secs

     total energy              =   -4468.73193775 Ry
     estimated scf accuracy    <       1.88208109 Ry

     iteration #  5     ecut=    40.00 Ry     beta= 0.30
     Davidson diagonalization with overlap
     ethr =  3.00E-04,  avg # of iterations =  1.0

     negative rho (up, down):  3.592E-02 0.000E+00

     total cpu time spent up to now is       53.3 secs

     total energy              =   -4468.15413829 Ry
     estimated scf accuracy    <       1.56651291 Ry

     iteration #  6     ecut=    40.00 Ry     beta= 0.30
     Davidson diagonalization with overlap
     ethr =  2.88E-04,  avg # of iterations =  5.0

     negative rho (up, down):  3.103E-02 0.000E+00

     total cpu time spent up to now is       64.5 secs

     total energy              =   -4468.24628800 Ry
     estimated scf accuracy    <       1.76573718 Ry

     iteration #  7     ecut=    40.00 Ry     beta= 0.30
     Davidson diagonalization with overlap
     ethr =  2.88E-04,  avg # of iterations =  4.0

     negative rho (up, down):  3.082E-02 0.000E+00

     total cpu time spent up to now is       72.8 secs

     total energy              =   -4468.48793994 Ry
     estimated scf accuracy    <       0.25268451 Ry

     iteration #  8     ecut=    40.00 Ry     beta= 0.30
     Davidson diagonalization with overlap
     ethr =  4.64E-05,  avg # of iterations = 13.0

     negative rho (up, down):  3.542E-02 0.000E+00

     total cpu time spent up to now is       82.9 secs

     total energy              =   -4468.51714584 Ry
     estimated scf accuracy    <       0.12545657 Ry

     iteration #  9     ecut=    40.00 Ry     beta= 0.30
     Davidson diagonalization with overlap
     ethr =  2.31E-05,  avg # of iterations = 15.0

     negative rho (up, down):  3.599E-02 0.000E+00

     total cpu time spent up to now is       95.4 secs

     total energy              =   -4468.56172309 Ry
     estimated scf accuracy    <       0.54073878 Ry

     iteration # 10     ecut=    40.00 Ry     beta= 0.30
     Davidson diagonalization with overlap
     ethr =  2.31E-05,  avg # of iterations =  2.0

     negative rho (up, down):  3.512E-02 0.000E+00

     total cpu time spent up to now is      102.8 secs

     total energy              =   -4468.48100527 Ry
     estimated scf accuracy    <       0.40378140 Ry

     iteration # 11     ecut=    40.00 Ry     beta= 0.30
     Davidson diagonalization with overlap
     ethr =  2.31E-05,  avg # of iterations =  3.7

     negative rho (up, down):  3.384E-02 0.000E+00

     total cpu time spent up to now is      111.5 secs

     total energy              =   -4468.49246123 Ry
     estimated scf accuracy    <       0.06756522 Ry

     iteration # 12     ecut=    40.00 Ry     beta= 0.30
     Davidson diagonalization with overlap
     ethr =  1.24E-05,  avg # of iterations =  9.7

     negative rho (up, down):  3.319E-02 0.000E+00

     total cpu time spent up to now is      123.5 secs

     total energy              =   -4468.50194560 Ry
     estimated scf accuracy    <       0.05782950 Ry

     iteration # 13     ecut=    40.00 Ry     beta= 0.30
     Davidson diagonalization with overlap
     ethr =  1.06E-05,  avg # of iterations =  4.0

     negative rho (up, down):  3.234E-02 0.000E+00

     total cpu time spent up to now is      131.9 secs

     total energy              =   -4468.50897390 Ry
     estimated scf accuracy    <       0.01723589 Ry

     iteration # 14     ecut=    40.00 Ry     beta= 0.30
     Davidson diagonalization with overlap
     ethr =  3.17E-06,  avg # of iterations =  8.0

     negative rho (up, down):  3.763E-02 0.000E+00

     total cpu time spent up to now is      141.1 secs

     total energy              =   -4468.51001789 Ry
     estimated scf accuracy    <       0.02048170 Ry

     iteration # 15     ecut=    40.00 Ry     beta= 0.30
     Davidson diagonalization with overlap
     ethr =  3.17E-06,  avg # of iterations =  2.0

     negative rho (up, down):  6.988E-02 0.000E+00

     total cpu time spent up to now is      148.4 secs

     total energy              =   -4468.50761770 Ry
     estimated scf accuracy    <       0.02227589 Ry

     iteration # 16     ecut=    40.00 Ry     beta= 0.30
     Davidson diagonalization with overlap
     ethr =  3.17E-06,  avg # of iterations =  5.7

     negative rho (up, down):  7.648E-02 0.000E+00

     total cpu time spent up to now is      158.1 secs

     total energy              =   -4468.51224139 Ry
     estimated scf accuracy    <       0.01382892 Ry

     iteration # 17     ecut=    40.00 Ry     beta= 0.30
     Davidson diagonalization with overlap
     ethr =  2.54E-06,  avg # of iterations =  2.0

     negative rho (up, down):  1.020E-01 0.000E+00

     total cpu time spent up to now is      165.3 secs

     total energy              =   -4468.51287525 Ry
     estimated scf accuracy    <       0.01006650 Ry

     iteration # 18     ecut=    40.00 Ry     beta= 0.30
     Davidson diagonalization with overlap
     ethr =  1.85E-06,  avg # of iterations =  2.0

     negative rho (up, down):  9.376E-02 0.000E+00

     total cpu time spent up to now is      172.8 secs

     total energy              =   -4468.51332497 Ry
     estimated scf accuracy    <       0.00699624 Ry

     iteration # 19     ecut=    40.00 Ry     beta= 0.30
     Davidson diagonalization with overlap
     ethr =  1.29E-06,  avg # of iterations =  2.0

     negative rho (up, down):  9.626E-02 0.000E+00

     total cpu time spent up to now is      180.2 secs

     total energy              =   -4468.51332265 Ry
     estimated scf accuracy    <       0.00782999 Ry

     iteration # 20     ecut=    40.00 Ry     beta= 0.30
     Davidson diagonalization with overlap
     ethr =  1.29E-06,  avg # of iterations =  1.7

     negative rho (up, down):  9.953E-02 0.000E+00

     total cpu time spent up to now is      187.2 secs

     total energy              =   -4468.51291633 Ry
     estimated scf accuracy    <       0.00616876 Ry

     iteration # 21     ecut=    40.00 Ry     beta= 0.30
     Davidson diagonalization with overlap
     ethr =  1.13E-06,  avg # of iterations =  3.3

     negative rho (up, down):  1.082E-01 0.000E+00

     total cpu time spent up to now is      194.5 secs

     total energy              =   -4468.51321221 Ry
     estimated scf accuracy    <       0.00488514 Ry

     iteration # 22     ecut=    40.00 Ry     beta= 0.30
     Davidson diagonalization with overlap
     ethr =  8.98E-07,  avg # of iterations =  2.7

     negative rho (up, down):  1.165E-01 0.000E+00

     total cpu time spent up to now is      201.8 secs

     total energy              =   -4468.51342685 Ry
     estimated scf accuracy    <       0.00421401 Ry

     iteration # 23     ecut=    40.00 Ry     beta= 0.30
     Davidson diagonalization with overlap
     ethr =  7.75E-07,  avg # of iterations =  2.0

     negative rho (up, down):  1.163E-01 0.000E+00

     total cpu time spent up to now is      209.0 secs

     total energy              =   -4468.51347844 Ry
     estimated scf accuracy    <       0.00370264 Ry

     iteration # 24     ecut=    40.00 Ry     beta= 0.30
     Davidson diagonalization with overlap
     ethr =  6.81E-07,  avg # of iterations =  1.7

     negative rho (up, down):  1.064E-01 0.000E+00

     total cpu time spent up to now is      216.0 secs

     total energy              =   -4468.51283023 Ry
     estimated scf accuracy    <       0.00346749 Ry

     iteration # 25     ecut=    40.00 Ry     beta= 0.30
     Davidson diagonalization with overlap
     ethr =  6.37E-07,  avg # of iterations =  2.7

     negative rho (up, down):  1.123E-01 0.000E+00

     total cpu time spent up to now is      223.2 secs

     total energy              =   -4468.51246746 Ry
     estimated scf accuracy    <       0.00309626 Ry

     iteration # 26     ecut=    40.00 Ry     beta= 0.30
     Davidson diagonalization with overlap
     ethr =  5.69E-07,  avg # of iterations =  2.0

     negative rho (up, down):  1.188E-01 0.000E+00

     total cpu time spent up to now is      230.5 secs

     total energy              =   -4468.51167913 Ry
     estimated scf accuracy    <       0.00250845 Ry

     iteration # 27     ecut=    40.00 Ry     beta= 0.30
     Davidson diagonalization with overlap
     ethr =  4.61E-07,  avg # of iterations =  3.3

     negative rho (up, down):  1.266E-01 0.000E+00

     total cpu time spent up to now is      237.9 secs

     total energy              =   -4468.51149087 Ry
     estimated scf accuracy    <       0.00212588 Ry

     iteration # 28     ecut=    40.00 Ry     beta= 0.30
     Davidson diagonalization with overlap
     ethr =  3.91E-07,  avg # of iterations =  4.3

     negative rho (up, down):  1.219E-01 0.000E+00

     total cpu time spent up to now is      245.4 secs

     total energy              =   -4468.51116018 Ry
     estimated scf accuracy    <       0.00190364 Ry

     iteration # 29     ecut=    40.00 Ry     beta= 0.30
     Davidson diagonalization with overlap
     ethr =  3.50E-07,  avg # of iterations =  2.0

     negative rho (up, down):  1.160E-01 0.000E+00

     total cpu time spent up to now is      252.7 secs

     total energy              =   -4468.51106314 Ry
     estimated scf accuracy    <       0.00147221 Ry

     iteration # 30     ecut=    40.00 Ry     beta= 0.30
     Davidson diagonalization with overlap
     ethr =  2.71E-07,  avg # of iterations =  2.0

     negative rho (up, down):  1.017E-01 0.000E+00

     total cpu time spent up to now is      260.1 secs

     total energy              =   -4468.51088317 Ry
     estimated scf accuracy    <       0.00124024 Ry

     iteration # 31     ecut=    40.00 Ry     beta= 0.30
     Davidson diagonalization with overlap
     ethr =  2.28E-07,  avg # of iterations =  3.3

     negative rho (up, down):  9.441E-02 0.000E+00

     total cpu time spent up to now is      267.4 secs

     total energy              =   -4468.51042122 Ry
     estimated scf accuracy    <       0.00087028 Ry

     iteration # 32     ecut=    40.00 Ry     beta= 0.30
     Davidson diagonalization with overlap
     ethr =  1.60E-07,  avg # of iterations =  4.0

     negative rho (up, down):  9.322E-02 0.000E+00

     total cpu time spent up to now is      275.2 secs

     total energy              =   -4468.51065689 Ry
     estimated scf accuracy    <       0.00035663 Ry

     iteration # 33     ecut=    40.00 Ry     beta= 0.30
     Davidson diagonalization with overlap
     ethr =  6.56E-08,  avg # of iterations =  4.7

     negative rho (up, down):  7.349E-02 0.000E+00

     total cpu time spent up to now is      282.7 secs

     total energy              =   -4468.51063499 Ry
     estimated scf accuracy    <       0.00022176 Ry

     iteration # 34     ecut=    40.00 Ry     beta= 0.30
     Davidson diagonalization with overlap
     ethr =  4.08E-08,  avg # of iterations =  4.7

     negative rho (up, down):  6.380E-02 0.000E+00

     total cpu time spent up to now is      291.1 secs

     total energy              =   -4468.51089122 Ry
     estimated scf accuracy    <       0.00010336 Ry

     iteration # 35     ecut=    40.00 Ry     beta= 0.30
     Davidson diagonalization with overlap
     ethr =  1.90E-08,  avg # of iterations =  5.7

     negative rho (up, down):  5.621E-02 0.000E+00

     total cpu time spent up to now is      298.9 secs

     total energy              =   -4468.51108468 Ry
     estimated scf accuracy    <       0.00006925 Ry

     iteration # 36     ecut=    40.00 Ry     beta= 0.30
     Davidson diagonalization with overlap
     ethr =  1.27E-08,  avg # of iterations =  7.3

     negative rho (up, down):  5.568E-02 0.000E+00

     total cpu time spent up to now is      307.5 secs

     total energy              =   -4468.51107140 Ry
     estimated scf accuracy    <       0.00006497 Ry

     iteration # 37     ecut=    40.00 Ry     beta= 0.30
     Davidson diagonalization with overlap
     ethr =  1.19E-08,  avg # of iterations =  2.0

     negative rho (up, down):  4.554E-02 0.000E+00

     total cpu time spent up to now is      314.9 secs

     total energy              =   -4468.51089371 Ry
     estimated scf accuracy    <       0.00005281 Ry

     iteration # 38     ecut=    40.00 Ry     beta= 0.30
     Davidson diagonalization with overlap
     ethr =  9.71E-09,  avg # of iterations =  6.3

     negative rho (up, down):  3.945E-02 0.000E+00

     total cpu time spent up to now is      323.0 secs

     total energy              =   -4468.51093666 Ry
     estimated scf accuracy    <       0.00001957 Ry

     iteration # 39     ecut=    40.00 Ry     beta= 0.30
     Davidson diagonalization with overlap
     ethr =  3.60E-09,  avg # of iterations =  5.7

     negative rho (up, down):  3.810E-02 0.000E+00

     total cpu time spent up to now is      331.6 secs

     total energy              =   -4468.51091239 Ry
     estimated scf accuracy    <       0.00001619 Ry

     iteration # 40     ecut=    40.00 Ry     beta= 0.30
     Davidson diagonalization with overlap
     ethr =  2.98E-09,  avg # of iterations =  6.3

     negative rho (up, down):  3.642E-02 0.000E+00

     total cpu time spent up to now is      339.4 secs

     total energy              =   -4468.51091470 Ry
     estimated scf accuracy    <       0.00001269 Ry

     iteration # 41     ecut=    40.00 Ry     beta= 0.30
     Davidson diagonalization with overlap
     ethr =  2.33E-09,  avg # of iterations =  5.7

     negative rho (up, down):  3.549E-02 0.000E+00

     total cpu time spent up to now is      347.2 secs

     total energy              =   -4468.51099442 Ry
     estimated scf accuracy    <       0.00000872 Ry

     iteration # 42     ecut=    40.00 Ry     beta= 0.30
     Davidson diagonalization with overlap
     ethr =  1.60E-09,  avg # of iterations =  5.7

     negative rho (up, down):  3.520E-02 0.000E+00

     total cpu time spent up to now is      355.0 secs

     total energy              =   -4468.51103100 Ry
     estimated scf accuracy    <       0.00000736 Ry

     iteration # 43     ecut=    40.00 Ry     beta= 0.30
     Davidson diagonalization with overlap
     ethr =  1.35E-09,  avg # of iterations =  6.0

     negative rho (up, down):  3.588E-02 0.000E+00

     total cpu time spent up to now is      363.3 secs

     total energy              =   -4468.51104070 Ry
     estimated scf accuracy    <       0.00000398 Ry

     iteration # 44     ecut=    40.00 Ry     beta= 0.30
     Davidson diagonalization with overlap
     ethr =  7.32E-10,  avg # of iterations =  5.0

     negative rho (up, down):  3.668E-02 0.000E+00

     total cpu time spent up to now is      373.1 secs

     total energy              =   -4468.51104755 Ry
     estimated scf accuracy    <       0.00000691 Ry

     iteration # 45     ecut=    40.00 Ry     beta= 0.30
     Davidson diagonalization with overlap
     ethr =  7.32E-10,  avg # of iterations =  5.7

     negative rho (up, down):  3.693E-02 0.000E+00

     total cpu time spent up to now is      382.9 secs

     total energy              =   -4468.51105230 Ry
     estimated scf accuracy    <       0.00000098 Ry

     iteration # 46     ecut=    40.00 Ry     beta= 0.30
     Davidson diagonalization with overlap
     ethr =  1.80E-10,  avg # of iterations =  4.7

     negative rho (up, down):  3.688E-02 0.000E+00

     total cpu time spent up to now is      391.0 secs

     total energy              =   -4468.51105564 Ry
     estimated scf accuracy    <       0.00000037 Ry

     iteration # 47     ecut=    40.00 Ry     beta= 0.30
     Davidson diagonalization with overlap
     ethr =  6.87E-11,  avg # of iterations =  5.7

     negative rho (up, down):  3.678E-02 0.000E+00

     total cpu time spent up to now is      400.2 secs

     total energy              =   -4468.51105757 Ry
     estimated scf accuracy    <       0.00000034 Ry

     iteration # 48     ecut=    40.00 Ry     beta= 0.30
     Davidson diagonalization with overlap
     ethr =  6.28E-11,  avg # of iterations =  5.7

     negative rho (up, down):  3.677E-02 0.000E+00

     total cpu time spent up to now is      408.0 secs

     total energy              =   -4468.51105885 Ry
     estimated scf accuracy    <       0.00000015 Ry

     iteration # 49     ecut=    40.00 Ry     beta= 0.30
     Davidson diagonalization with overlap
     ethr =  2.83E-11,  avg # of iterations =  5.3

     negative rho (up, down):  3.674E-02 0.000E+00

     total cpu time spent up to now is      418.9 secs

     total energy              =   -4468.51105936 Ry
     estimated scf accuracy    <       0.00000056 Ry

     iteration # 50     ecut=    40.00 Ry     beta= 0.30
     Davidson diagonalization with overlap
     ethr =  2.83E-11,  avg # of iterations =  6.3

     negative rho (up, down):  3.672E-02 0.000E+00

     total cpu time spent up to now is      426.9 secs

     total energy              =   -4468.51105951 Ry
     estimated scf accuracy    <       0.00000028 Ry

     iteration # 51     ecut=    40.00 Ry     beta= 0.30
     Davidson diagonalization with overlap
     ethr =  2.83E-11,  avg # of iterations =  6.0

     negative rho (up, down):  3.673E-02 0.000E+00

     total cpu time spent up to now is      436.3 secs

     total energy              =   -4468.51105959 Ry
     estimated scf accuracy    <       0.00000002 Ry

     iteration # 52     ecut=    40.00 Ry     beta= 0.30
     Davidson diagonalization with overlap
     ethr =  2.81E-12,  avg # of iterations =  4.3

     negative rho (up, down):  3.673E-02 0.000E+00

     total cpu time spent up to now is      445.1 secs

     total energy              =   -4468.51105962 Ry
     estimated scf accuracy    <       0.00000002 Ry

     iteration # 53     ecut=    40.00 Ry     beta= 0.30
     Davidson diagonalization with overlap
     ethr =  2.81E-12,  avg # of iterations =  4.3

     negative rho (up, down):  3.672E-02 0.000E+00

     total cpu time spent up to now is      453.1 secs

     End of self-consistent calculation

          k = 0.0000 0.0000 0.0000 ( 55833 PWs)   bands (ev):

   -54.2786 -54.2768 -54.2464 -54.2464 -54.2464 -54.2464 -54.2462 -54.2462
   -54.2462 -54.2462 -54.2448 -54.2448 -54.2448 -54.2448 -54.2178 -54.2178
   -54.1418 -54.1036 -54.1036 -54.1036 -54.1036 -54.0904 -54.0904 -54.0904
   -54.0904 -54.0867 -54.0752 -54.0752 -54.0752 -54.0752 -54.0624 -54.0624
   -30.7683 -30.7683 -30.7683 -30.7683 -30.7256 -30.6919 -30.6917 -30.6917
   -30.6917 -30.6917 -30.6850 -30.6850 -30.6850 -30.6850 -30.6667 -30.6667
   -30.6635 -30.6635 -30.6635 -30.6635 -30.6203 -30.6203 -30.5979 -30.5979
   -30.5799 -30.5799 -30.5799 -30.5799 -30.5274 -30.5274 -30.5273 -30.5273
   -30.5239 -30.5239 -30.5239 -30.5239 -30.5194 -30.5194 -30.5158 -30.5158
   -30.5158 -30.5158 -30.4952 -30.4952 -30.4952 -30.4952 -30.4738 -30.4641
   -30.4641 -30.4641 -30.4641 -30.4160 -30.4160 -30.4068 -30.4068 -30.4068
   -30.4068 -30.3887 -30.3887 -30.3886 -30.3886 -30.3884 -30.3884 -30.3696
   -30.3696 -30.3683 -30.3683 -30.3167 -30.3167 -30.3167 -30.3167 -30.3145
   -30.3144 -30.3144 -30.3144 -30.2957 -30.2957 -30.2957 -30.2957 -30.2918
   -30.2918 -30.2917 -30.2917 -30.2917 -30.2917 -30.2635 -30.2530 -30.2530
   -30.2530 -30.2530 -30.2374 -30.2374 -30.2374 -30.2374 -30.2167 -30.2167
   -12.9654 -12.2370 -11.9497 -11.9497 -11.9497 -11.9497 -11.7107 -11.7107
   -11.6205 -11.5864 -11.4669 -11.4669 -11.4669 -11.4669 -11.2221 -11.2221
   -11.2221 -11.2221 -11.0125 -11.0124 -10.9815 -10.9815 -10.9815 -10.9815
   -10.8739 -10.8739 -10.8739 -10.8739 -10.5057 -10.5057 -10.5057 -10.5057
    -3.7887  -3.7887  -3.7887  -3.7887  -2.9445  -2.9445  -2.9445  -2.9445
    -2.7252  -2.7252  -2.7252  -2.7252  -2.6212  -2.6212  -2.6212  -2.6212
    -2.3085  -2.1410  -2.1410  -2.1410  -2.1410  -2.0098  -2.0098  -1.8072
    -1.6129  -1.6129  -1.6129  -1.6129  -1.5779  -1.5779  -1.5744  -1.5744
    -1.5744  -1.5744  -1.5408  -1.5408  -1.5408  -1.5408  -1.4532  -1.4532
    -1.4532  -1.4532  -1.2097  -1.2097  -1.2097  -1.2097  -1.1675  -1.1675
    -1.1675  -1.1675  -1.1624  -1.1624  -1.1624  -1.1624  -1.0654  -1.0654
    -1.0654  -1.0654  -0.9315  -0.9315  -0.8394  -0.8394  -0.8394  -0.8394
    -0.8017  -0.8017  -0.7100  -0.5451  -0.5451  -0.5451  -0.5451  -0.4228
    -0.4228  -0.4227  -0.4227   0.0898   0.0898   0.0898   0.0899   0.1868
     0.1868   0.2894   0.2894   0.2894   0.2894   0.3432   0.4269   0.4269
     0.6656   0.6656   0.7560   0.7560   0.9688   1.2978   1.2978   1.5696
     1.7142   1.7142   1.7166   1.7166   2.2962   2.5023   2.5023   2.5023
     2.5023   2.8846   3.2315   3.2315   3.4746   3.6893   3.6893   3.7511
     3.7511   3.7511   3.7511   4.1739   4.1739   4.1739   4.1739   4.3584
     4.5259   4.5259   4.5259   4.5259   4.5480   4.5856   4.5856   4.5856
     4.5856   4.6233   4.6233   4.6250   4.6957   4.6958   4.6958   4.6958
     4.7302   4.7302   4.7393   4.7393   4.7393   4.7393   4.9379   4.9465
     4.9465   4.9465   4.9465   4.9496   4.9496   4.9496   4.9496   5.0003
     5.0003   5.0003   5.0003   5.0943   5.0943   5.0943   5.0943   5.1743
     5.1743   5.1909   5.1909   5.1909   5.2179   5.2180

          k = 0.0000 0.3333 0.0000 ( 55866 PWs)   bands (ev):

   -54.2740 -54.2726 -54.2620 -54.2612 -54.2460 -54.2460 -54.2458 -54.2458
   -54.2452 -54.2452 -54.2451 -54.2451 -54.2317 -54.2317 -54.2215 -54.2215
   -54.1369 -54.1231 -54.1019 -54.1019 -54.0973 -54.0973 -54.0852 -54.0833
   -54.0830 -54.0830 -54.0811 -54.0774 -54.0774 -54.0691 -54.0681 -54.0643
   -30.7540 -30.7540 -30.7363 -30.7362 -30.7144 -30.7111 -30.7111 -30.6934
   -30.6931 -30.6869 -30.6788 -30.6787 -30.6772 -30.6772 -30.6661 -30.6661
   -30.6633 -30.6622 -30.6598 -30.6480 -30.6424 -30.6424 -30.6349 -30.6036
   -30.6009 -30.6008 -30.5970 -30.5937 -30.5926 -30.5749 -30.5710 -30.5578
   -30.5548 -30.5277 -30.5262 -30.5184 -30.5184 -30.5060 -30.5060 -30.5044
   -30.5043 -30.4989 -30.4989 -30.4967 -30.4967 -30.4633 -30.4577 -30.4565
   -30.4324 -30.4180 -30.4180 -30.4156 -30.4069 -30.4047 -30.4027 -30.4017
   -30.3884 -30.3865 -30.3863 -30.3863 -30.3709 -30.3665 -30.3622 -30.3539
   -30.3497 -30.3438 -30.3438 -30.3426 -30.3368 -30.3364 -30.3363 -30.3360
   -30.3360 -30.3234 -30.3074 -30.3057 -30.3057 -30.3013 -30.3013 -30.2952
   -30.2820 -30.2820 -30.2780 -30.2780 -30.2733 -30.2668 -30.2628 -30.2627
   -30.2581 -30.2581 -30.2437 -30.2436 -30.2382 -30.2366 -30.2304 -30.2301
   -12.8029 -12.3928 -12.0941 -11.8153 -11.8153 -11.7537 -11.7062 -11.6847
   -11.6231 -11.5028 -11.4961 -11.4961 -11.4604 -11.4545 -11.3740 -11.3740
   -11.2288 -11.2074 -11.2074 -11.1430 -10.9617 -10.9447 -10.8982 -10.8827
   -10.8827 -10.8315 -10.7762 -10.7762 -10.6605 -10.6605 -10.5783 -10.5783
    -3.5337  -3.5337  -3.5163  -3.5163  -2.9969  -2.9969  -2.9392  -2.9392
    -2.7263  -2.7263  -2.7161  -2.6168  -2.6168  -2.5861  -2.4654  -2.3381
    -2.2988  -2.2583  -2.2583  -2.1781  -2.1260  -2.1239  -2.1239  -2.0322
    -1.9835  -1.8785  -1.8748  -1.5481  -1.5236  -1.5089  -1.5089  -1.4860
    -1.4860  -1.4324  -1.4175  -1.4088  -1.4087  -1.3986  -1.3986  -1.3526
    -1.3526  -1.3377  -1.3377  -1.2496  -1.2316  -1.2316  -1.1444  -1.1444
    -1.1246  -1.0290  -0.9824  -0.9556  -0.9386  -0.9386  -0.8850  -0.8801
    -0.8801  -0.8553  -0.8108  -0.7854  -0.7795  -0.7795  -0.7724  -0.6881
    -0.6645  -0.6525  -0.6366  -0.6366  -0.6237  -0.6237  -0.5983  -0.5983
    -0.5268  -0.3697  -0.3611  -0.2812  -0.2056  -0.2056  -0.1853  -0.1397
    -0.1397   0.0171   0.0274   0.0289   0.1083   0.1689   0.1700   0.1718
     0.2431   0.2604   0.5748   0.6165   0.6198   0.6440   0.6704   1.1704
     1.8049   2.0577   2.0744   2.3869   2.4970   2.9127   2.9127   2.9676
     2.9702   3.2913   3.4295   3.4759   3.5165   3.5174   3.5423   3.5971
     3.6083   3.6371   3.7854   3.8188   3.8188   3.8916   3.8916   3.9070
     4.2562   4.2585   4.2862   4.2862   4.2934   4.3130   4.3578   4.3578
     4.5282   4.5673   4.5954   4.6797   4.6797   4.7102   4.7102   4.7197
     4.7197   4.7543   4.7589   4.7589   4.7641   4.7775   4.8045   4.8234
     4.8902   4.8902   4.9691   4.9691   4.9797   4.9797   4.9821   4.9913
     4.9914   5.0083   5.0083   5.0696   5.0696   5.0819   5.1231   5.1231
     5.1432   5.2121   5.2165   5.2424   5.2424   5.3262

          k = 0.3333 0.3333 0.0000 ( 55801 PWs)   bands (ev):

   -54.2701 -54.2689 -54.2596 -54.2596 -54.2590 -54.2590 -54.2531 -54.2529
   -54.2381 -54.2380 -54.2333 -54.2333 -54.2333 -54.2333 -54.2246 -54.2246
   -54.1324 -54.1198 -54.1198 -54.1105 -54.0842 -54.0834 -54.0834 -54.0834
   -54.0834 -54.0822 -54.0814 -54.0814 -54.0729 -54.0729 -54.0694 -54.0694
   -30.7380 -30.7347 -30.7347 -30.7080 -30.7080 -30.7048 -30.6980 -30.6960
   -30.6960 -30.6944 -30.6842 -30.6842 -30.6829 -30.6829 -30.6738 -30.6738
   -30.6709 -30.6674 -30.6674 -30.6446 -30.6446 -30.6413 -30.6413 -30.6380
   -30.6380 -30.6160 -30.6100 -30.6100 -30.5671 -30.5671 -30.5448 -30.5392
   -30.5392 -30.5360 -30.5360 -30.5308 -30.5308 -30.5227 -30.5227 -30.4934
   -30.4914 -30.4914 -30.4827 -30.4648 -30.4648 -30.4623 -30.4488 -30.4488
   -30.4414 -30.4414 -30.4323 -30.4323 -30.3952 -30.3952 -30.3925 -30.3892
   -30.3817 -30.3817 -30.3717 -30.3717 -30.3706 -30.3696 -30.3696 -30.3653
   -30.3653 -30.3567 -30.3428 -30.3428 -30.3362 -30.3362 -30.3332 -30.3295
   -30.3182 -30.3182 -30.3111 -30.3061 -30.3061 -30.2989 -30.2989 -30.2983
   -30.2983 -30.2969 -30.2969 -30.2951 -30.2951 -30.2831 -30.2763 -30.2626
   -30.2558 -30.2377 -30.2377 -30.2377 -30.2327 -30.2327 -30.2193 -30.2156
   -12.6436 -12.2428 -12.2428 -11.9555 -11.8711 -11.6297 -11.6297 -11.5931
   -11.5931 -11.5901 -11.5901 -11.4045 -11.4045 -11.3877 -11.3572 -11.3458
   -11.3458 -11.3258 -11.1212 -11.1212 -11.0252 -11.0252 -10.8885 -10.8885
   -10.8739 -10.8114 -10.8114 -10.7609 -10.7583 -10.7583 -10.6351 -10.6351
    -3.3754  -3.3754  -3.1775  -3.1354  -2.9235  -2.9235  -2.8721  -2.8721
    -2.6612  -2.6612  -2.6045  -2.6045  -2.4978  -2.4978  -2.4371  -2.4371
    -2.4012  -2.3191  -2.3191  -2.3144  -2.1542  -2.1542  -2.0302  -2.0201
    -1.9950  -1.9950  -1.6342  -1.6342  -1.6133  -1.6133  -1.5103  -1.4793
    -1.4793  -1.4265  -1.4265  -1.3002  -1.3002  -1.2879  -1.2588  -1.2588
    -1.2362  -1.2362  -1.2191  -1.1421  -1.1067  -1.1067  -1.1060  -1.1060
    -1.0769  -1.0769  -1.0478  -1.0273  -1.0273  -0.9970  -0.9096  -0.9096
    -0.8720  -0.8720  -0.7598  -0.7421  -0.7421  -0.7230  -0.7230  -0.6928
    -0.6928  -0.6627  -0.6278  -0.6278  -0.6098  -0.5601  -0.5601  -0.4155
    -0.4141  -0.4141  -0.3809  -0.3357  -0.3137  -0.3137  -0.2622  -0.2546
    -0.2546  -0.2291  -0.2291  -0.0946  -0.0692  -0.0692   0.0002   0.0002
     0.0619   0.0619   0.1188   0.1593   0.1593   0.2888   0.4323   0.6074
     2.3983   2.3983   2.4655   2.5689   2.5689   2.8547   3.2896   3.3132
     3.3132   3.4207   3.4207   3.5699   3.5699   3.5729   3.5729   3.5880
     3.5880   3.6034   3.7126   3.7148   3.7973   3.7973   3.8215   3.8215
     3.9163   4.0185   4.0185   4.0240   4.1363   4.1484   4.1484   4.2270
     4.2417   4.2948   4.2948   4.3600   4.3600   4.3697   4.3697   4.4175
     4.4175   4.4884   4.5067   4.6443   4.6443   4.6937   4.7054   4.7955
     4.8484   4.8484   4.9250   4.9672   4.9672   4.9756   4.9764   4.9764
     5.0496   5.0496   5.0926   5.0926   5.1503   5.1503   5.1935   5.2035
     5.2093   5.2494   5.2494   5.2508   5.2508   5.3077

     the Fermi energy is     3.6279 ev

!    total energy              =   -4468.51105978 Ry
     estimated scf accuracy    <          7.4E-09 Ry
     smearing contrib. (-TS)   =      -0.03755578 Ry
     internal energy E=F+TS    =   -4468.47350400 Ry

     The total energy is F=E-TS. E is the sum of the following terms:
     one-electron contribution =  -55995.04960038 Ry
     hartree contribution      =   28044.24749832 Ry
     xc contribution           =    -750.38887613 Ry
     ewald contribution        =   24233.69717311 Ry
     DFT-D3 Dispersion         =      -0.97969891 Ry

     convergence has been achieved in  53 iterations

     negative rho (up, down):  3.672E-02 0.000E+00

     Forces acting on atoms (cartesian axes, Ry/au):

     atom    1 type  1   force =     0.00000000    0.00000000    0.08097765
     atom    2 type  1   force =    -0.00000013    0.00000000   -0.00017500
     atom    3 type  1   force =     0.00000000   -0.00000013   -0.00017500
     atom    4 type  1   force =    -0.00000012   -0.00000012    0.08097489
     atom    5 type  2   force =     0.00000000   -0.00000006   -0.03468134
     atom    6 type  2   force =     0.00000000    0.00000000   -0.02683820
     atom    7 type  2   force =    -0.00000006    0.00000000   -0.03468134
     atom    8 type  2   force =    -0.00000005   -0.00000005   -0.02683595
     atom    9 type  1   force =     0.00000000    0.00000000    0.00017481
     atom   10 type  1   force =    -0.00000020    0.00000000   -0.08097748
     atom   11 type  1   force =     0.00000000   -0.00000020   -0.08097748
     atom   12 type  1   force =    -0.00000018   -0.00000018    0.00017774
     atom   13 type  2   force =     0.00000000   -0.00000008    0.02683667
     atom   14 type  2   force =     0.00000000    0.00000000    0.03468214
     atom   15 type  2   force =    -0.00000008    0.00000000    0.02683667
     atom   16 type  2   force =    -0.00000013   -0.00000013    0.03468140
     atom   17 type  1   force =     0.00000000    0.00000000    0.08097775
     atom   18 type  1   force =    -0.00000015    0.00000000   -0.00017499
     atom   19 type  1   force =     0.00000000    0.00000013   -0.00017500
     atom   20 type  1   force =    -0.00000012    0.00000012    0.08097489
     atom   21 type  2   force =     0.00000000    0.00000006   -0.03468134
     atom   22 type  2   force =     0.00000000    0.00000000   -0.02683823
     atom   23 type  2   force =    -0.00000009    0.00000000   -0.03468137
     atom   24 type  2   force =    -0.00000005    0.00000005   -0.02683595
     atom   25 type  1   force =     0.00000000    0.00000000    0.00017472
     atom   26 type  1   force =    -0.00000011    0.00000000   -0.08097762
     atom   27 type  1   force =     0.00000000    0.00000020   -0.08097748
     atom   28 type  1   force =    -0.00000018    0.00000018    0.00017774
     atom   29 type  2   force =     0.00000000    0.00000008    0.02683667
     atom   30 type  2   force =     0.00000000    0.00000000    0.03468211
     atom   31 type  2   force =    -0.00000005    0.00000000    0.02683662
     atom   32 type  2   force =    -0.00000013    0.00000013    0.03468140
     atom   33 type  1   force =     0.00000000    0.00000000    0.08097775
     atom   34 type  1   force =     0.00000013    0.00000000   -0.00017500
     atom   35 type  1   force =     0.00000000   -0.00000015   -0.00017499
     atom   36 type  1   force =     0.00000012   -0.00000012    0.08097489
     atom   37 type  2   force =     0.00000000   -0.00000009   -0.03468137
     atom   38 type  2   force =     0.00000000    0.00000000   -0.02683823
     atom   39 type  2   force =     0.00000006    0.00000000   -0.03468134
     atom   40 type  2   force =     0.00000005   -0.00000005   -0.02683595
     atom   41 type  1   force =     0.00000000    0.00000000    0.00017472
     atom   42 type  1   force =     0.00000020    0.00000000   -0.08097748
     atom   43 type  1   force =     0.00000000   -0.00000011   -0.08097762
     atom   44 type  1   force =     0.00000018   -0.00000018    0.00017774
     atom   45 type  2   force =     0.00000000   -0.00000005    0.02683662
     atom   46 type  2   force =     0.00000000    0.00000000    0.03468211
     atom   47 type  2   force =     0.00000008    0.00000000    0.02683667
     atom   48 type  2   force =     0.00000013   -0.00000013    0.03468140
     atom   49 type  1   force =     0.00000000    0.00000000    0.08097767
     atom   50 type  1   force =     0.00000015    0.00000000   -0.00017499
     atom   51 type  1   force =     0.00000000    0.00000015   -0.00017499
     atom   52 type  1   force =     0.00000012    0.00000012    0.08097489
     atom   53 type  2   force =     0.00000000    0.00000009   -0.03468137
     atom   54 type  2   force =     0.00000000    0.00000000   -0.02683820
     atom   55 type  2   force =     0.00000009    0.00000000   -0.03468137
     atom   56 type  2   force =     0.00000005    0.00000005   -0.02683595
     atom   57 type  1   force =     0.00000000    0.00000000    0.00017477
     atom   58 type  1   force =     0.00000011    0.00000000   -0.08097762
     atom   59 type  1   force =     0.00000000    0.00000011   -0.08097762
     atom   60 type  1   force =     0.00000018    0.00000018    0.00017774
     atom   61 type  2   force =     0.00000000    0.00000005    0.02683662
     atom   62 type  2   force =     0.00000000    0.00000000    0.03468237
     atom   63 type  2   force =     0.00000005    0.00000000    0.02683662
     atom   64 type  2   force =     0.00000013    0.00000013    0.03468140
     The non-local contrib.  to forces
     atom    1 type  1   force =     0.00000000    0.00000000   -0.08011706
     atom    2 type  1   force =    -0.00000016    0.00000000    0.00466276
     atom    3 type  1   force =    -0.00000000   -0.00000016    0.00466276
     atom    4 type  1   force =    -0.00000037   -0.00000037   -0.08010997
     atom    5 type  2   force =     0.00000000   -0.00000001    0.14740529
     atom    6 type  2   force =     0.00000000    0.00000000   -0.05957052
     atom    7 type  2   force =    -0.00000001    0.00000000    0.14740529
     atom    8 type  2   force =    -0.00000005   -0.00000005   -0.05956814
     atom    9 type  1   force =     0.00000000    0.00000000   -0.00465704
     atom   10 type  1   force =    -0.00000059   -0.00000000    0.08011735
     atom   11 type  1   force =     0.00000000   -0.00000059    0.08011735
     atom   12 type  1   force =    -0.00000051   -0.00000051   -0.00466686
     atom   13 type  2   force =     0.00000000   -0.00000004    0.05956904
     atom   14 type  2   force =     0.00000000    0.00000000   -0.14740499
     atom   15 type  2   force =    -0.00000004    0.00000000    0.05956904
     atom   16 type  2   force =     0.00000000    0.00000000   -0.14740603
     atom   17 type  1   force =     0.00000000    0.00000000   -0.08011696
     atom   18 type  1   force =    -0.00000063    0.00000000    0.00466282
     atom   19 type  1   force =     0.00000000    0.00000016    0.00466276
     atom   20 type  1   force =    -0.00000037    0.00000037   -0.08010997
     atom   21 type  2   force =    -0.00000000    0.00000001    0.14740529
     atom   22 type  2   force =     0.00000000    0.00000000   -0.05957090
     atom   23 type  2   force =    -0.00000002    0.00000000    0.14740525
     atom   24 type  2   force =    -0.00000005    0.00000005   -0.05956814
     atom   25 type  1   force =     0.00000000    0.00000000   -0.00465760
     atom   26 type  1   force =    -0.00000054    0.00000000    0.08011753
     atom   27 type  1   force =     0.00000000    0.00000059    0.08011735
     atom   28 type  1   force =    -0.00000051    0.00000051   -0.00466686
     atom   29 type  2   force =     0.00000000    0.00000004    0.05956904
     atom   30 type  2   force =     0.00000000    0.00000000   -0.14740503
     atom   31 type  2   force =    -0.00000002    0.00000000    0.05956926
     atom   32 type  2   force =     0.00000000   -0.00000000   -0.14740603
     atom   33 type  1   force =     0.00000000    0.00000000   -0.08011696
     atom   34 type  1   force =     0.00000016   -0.00000000    0.00466276
     atom   35 type  1   force =     0.00000000   -0.00000063    0.00466282
     atom   36 type  1   force =     0.00000037   -0.00000037   -0.08010997
     atom   37 type  2   force =     0.00000000   -0.00000002    0.14740525
     atom   38 type  2   force =     0.00000000    0.00000000   -0.05957090
     atom   39 type  2   force =     0.00000001    0.00000000    0.14740529
     atom   40 type  2   force =     0.00000005   -0.00000005   -0.05956814
     atom   41 type  1   force =     0.00000000    0.00000000   -0.00465760
     atom   42 type  1   force =     0.00000059   -0.00000000    0.08011735
     atom   43 type  1   force =     0.00000000   -0.00000054    0.08011753
     atom   44 type  1   force =     0.00000051   -0.00000051   -0.00466686
     atom   45 type  2   force =    -0.00000000   -0.00000002    0.05956926
     atom   46 type  2   force =     0.00000000    0.00000000   -0.14740503
     atom   47 type  2   force =     0.00000004   -0.00000000    0.05956904
     atom   48 type  2   force =    -0.00000000    0.00000000   -0.14740603
     atom   49 type  1   force =     0.00000000    0.00000000   -0.08011747
     atom   50 type  1   force =     0.00000063    0.00000000    0.00466282
     atom   51 type  1   force =     0.00000000    0.00000063    0.00466282
     atom   52 type  1   force =     0.00000037    0.00000037   -0.08010997
     atom   53 type  2   force =    -0.00000000    0.00000002    0.14740525
     atom   54 type  2   force =     0.00000000    0.00000000   -0.05957067
     atom   55 type  2   force =     0.00000002    0.00000000    0.14740525
     atom   56 type  2   force =     0.00000005    0.00000005   -0.05956814
     atom   57 type  1   force =     0.00000000    0.00000000   -0.00465758
     atom   58 type  1   force =     0.00000054    0.00000000    0.08011753
     atom   59 type  1   force =     0.00000000    0.00000054    0.08011753
     atom   60 type  1   force =     0.00000051    0.00000051   -0.00466686
     atom   61 type  2   force =     0.00000000    0.00000002    0.05956926
     atom   62 type  2   force =     0.00000000    0.00000000   -0.14740475
     atom   63 type  2   force =     0.00000002   -0.00000000    0.05956926
     atom   64 type  2   force =    -0.00000000   -0.00000000   -0.14740603
     The ionic contribution  to forces
     atom    1 type  1   force =     0.00000001    0.00000001 -157.97289640
     atom    2 type  1   force =    -0.00000001    0.00000001  -52.97041497
     atom    3 type  1   force =     0.00000001   -0.00000001  -52.97041497
     atom    4 type  1   force =    -0.00000001   -0.00000001 -157.97289640
     atom    5 type  2   force =     0.00000000   -0.00000000  -67.08263274
     atom    6 type  2   force =     0.00000000    0.00000000  -22.05613072
     atom    7 type  2   force =    -0.00000000    0.00000000  -67.08263274
     atom    8 type  2   force =    -0.00000000   -0.00000000  -22.05613072
     atom    9 type  1   force =     0.00000001    0.00000001   52.97041497
     atom   10 type  1   force =    -0.00000001    0.00000001  157.97289640
     atom   11 type  1   force =     0.00000001   -0.00000001  157.97289640
     atom   12 type  1   force =    -0.00000001   -0.00000001   52.97041497
     atom   13 type  2   force =     0.00000000   -0.00000000   22.05613072
     atom   14 type  2   force =     0.00000000    0.00000000   67.08263274
     atom   15 type  2   force =    -0.00000000    0.00000000   22.05613072
     atom   16 type  2   force =    -0.00000000   -0.00000000   67.08263274
     atom   17 type  1   force =     0.00000001    0.00000001 -157.97289640
     atom   18 type  1   force =    -0.00000001    0.00000001  -52.97041497
     atom   19 type  1   force =     0.00000001   -0.00000001  -52.97041497
     atom   20 type  1   force =    -0.00000001   -0.00000001 -157.97289640
     atom   21 type  2   force =     0.00000000   -0.00000000  -67.08263274
     atom   22 type  2   force =     0.00000000    0.00000000  -22.05613072
     atom   23 type  2   force =    -0.00000000    0.00000000  -67.08263274
     atom   24 type  2   force =    -0.00000000   -0.00000000  -22.05613072
     atom   25 type  1   force =     0.00000001    0.00000001   52.97041497
     atom   26 type  1   force =    -0.00000001    0.00000001  157.97289640
     atom   27 type  1   force =     0.00000001   -0.00000001  157.97289640
     atom   28 type  1   force =    -0.00000001   -0.00000001   52.97041497
     atom   29 type  2   force =     0.00000000   -0.00000000   22.05613072
     atom   30 type  2   force =     0.00000000    0.00000000   67.08263274
     atom   31 type  2   force =    -0.00000000    0.00000000   22.05613072
     atom   32 type  2   force =    -0.00000000   -0.00000000   67.08263274
     atom   33 type  1   force =     0.00000001    0.00000001 -157.97289640
     atom   34 type  1   force =    -0.00000001    0.00000001  -52.97041497
     atom   35 type  1   force =     0.00000001   -0.00000001  -52.97041497
     atom   36 type  1   force =    -0.00000001   -0.00000001 -157.97289640
     atom   37 type  2   force =     0.00000000   -0.00000000  -67.08263274
     atom   38 type  2   force =     0.00000000    0.00000000  -22.05613072
     atom   39 type  2   force =    -0.00000000    0.00000000  -67.08263274
     atom   40 type  2   force =    -0.00000000   -0.00000000  -22.05613072
     atom   41 type  1   force =     0.00000001    0.00000001   52.97041497
     atom   42 type  1   force =    -0.00000001    0.00000001  157.97289640
     atom   43 type  1   force =     0.00000001   -0.00000001  157.97289640
     atom   44 type  1   force =    -0.00000001   -0.00000001   52.97041497
     atom   45 type  2   force =     0.00000000   -0.00000000   22.05613072
     atom   46 type  2   force =     0.00000000    0.00000000   67.08263274
     atom   47 type  2   force =    -0.00000000    0.00000000   22.05613072
     atom   48 type  2   force =    -0.00000000   -0.00000000   67.08263274
     atom   49 type  1   force =     0.00000001    0.00000001 -157.97289640
     atom   50 type  1   force =    -0.00000001    0.00000001  -52.97041497
     atom   51 type  1   force =     0.00000001   -0.00000001  -52.97041497
     atom   52 type  1   force =    -0.00000001   -0.00000001 -157.97289640
     atom   53 type  2   force =     0.00000000   -0.00000000  -67.08263274
     atom   54 type  2   force =     0.00000000    0.00000000  -22.05613072
     atom   55 type  2   force =    -0.00000000    0.00000000  -67.08263274
     atom   56 type  2   force =    -0.00000000   -0.00000000  -22.05613072
     atom   57 type  1   force =     0.00000001    0.00000001   52.97041497
     atom   58 type  1   force =    -0.00000001    0.00000001  157.97289640
     atom   59 type  1   force =     0.00000001   -0.00000001  157.97289640
     atom   60 type  1   force =    -0.00000001   -0.00000001   52.97041497
     atom   61 type  2   force =     0.00000000   -0.00000000   22.05613072
     atom   62 type  2   force =     0.00000000    0.00000000   67.08263274
     atom   63 type  2   force =    -0.00000000    0.00000000   22.05613072
     atom   64 type  2   force =    -0.00000000   -0.00000000   67.08263274
     The local contribution  to forces
     atom    1 type  1   force =    -0.00000000   -0.00000000  158.13485614
     atom    2 type  1   force =     0.00000112   -0.00000000   52.96124046
     atom    3 type  1   force =    -0.00000000    0.00000112   52.96124046
     atom    4 type  1   force =     0.00000304    0.00000304  158.13485549
     atom    5 type  2   force =    -0.00000000    0.00000138   66.89962086
     atom    6 type  2   force =    -0.00000000   -0.00000000   22.08736327
     atom    7 type  2   force =     0.00000138   -0.00000000   66.89962086
     atom    8 type  2   force =     0.00000120    0.00000120   22.08736134
     atom    9 type  1   force =    -0.00000000   -0.00000000  -52.96126205
     atom   10 type  1   force =     0.00000526   -0.00000000 -158.13485931
     atom   11 type  1   force =    -0.00000000    0.00000526 -158.13485931
     atom   12 type  1   force =     0.00000388    0.00000388  -52.96125719
     atom   13 type  2   force =    -0.00000000    0.00000163  -22.08737030
     atom   14 type  2   force =    -0.00000000   -0.00000000  -66.89962183
     atom   15 type  2   force =     0.00000163   -0.00000000  -22.08737030
     atom   16 type  2   force =     0.00000274    0.00000274  -66.89962178
     atom   17 type  1   force =    -0.00000000    0.00000000  158.13485505
     atom   18 type  1   force =     0.00000470    0.00000000   52.96123972
     atom   19 type  1   force =    -0.00000000   -0.00000117   52.96124046
     atom   20 type  1   force =     0.00000304   -0.00000310  158.13485549
     atom   21 type  2   force =    -0.00000000   -0.00000139   66.89962086
     atom   22 type  2   force =    -0.00000000    0.00000000   22.08736348
     atom   23 type  2   force =     0.00000191    0.00000000   66.89962137
     atom   24 type  2   force =     0.00000120   -0.00000121   22.08736134
     atom   25 type  1   force =    -0.00000000    0.00000000  -52.96125687
     atom   26 type  1   force =     0.00000381    0.00000000 -158.13486053
     atom   27 type  1   force =    -0.00000000   -0.00000532 -158.13485931
     atom   28 type  1   force =     0.00000388   -0.00000394  -52.96125719
     atom   29 type  2   force =    -0.00000000   -0.00000164  -22.08737030
     atom   30 type  2   force =    -0.00000000    0.00000000  -66.89962265
     atom   31 type  2   force =     0.00000162   -0.00000000  -22.08736868
     atom   32 type  2   force =     0.00000274   -0.00000275  -66.89962178
     atom   33 type  1   force =     0.00000000   -0.00000000  158.13485505
     atom   34 type  1   force =    -0.00000117   -0.00000000   52.96124046
     atom   35 type  1   force =     0.00000000    0.00000470   52.96123972
     atom   36 type  1   force =    -0.00000310    0.00000304  158.13485549
     atom   37 type  2   force =     0.00000000    0.00000191   66.89962137
     atom   38 type  2   force =     0.00000000   -0.00000000   22.08736348
     atom   39 type  2   force =    -0.00000139   -0.00000000   66.89962086
     atom   40 type  2   force =    -0.00000121    0.00000120   22.08736134
     atom   41 type  1   force =     0.00000000   -0.00000000  -52.96125687
     atom   42 type  1   force =    -0.00000532   -0.00000000 -158.13485931
     atom   43 type  1   force =     0.00000000    0.00000381 -158.13486053
     atom   44 type  1   force =    -0.00000394    0.00000388  -52.96125719
     atom   45 type  2   force =    -0.00000000    0.00000162  -22.08736868
     atom   46 type  2   force =     0.00000000   -0.00000000  -66.89962265
     atom   47 type  2   force =    -0.00000164   -0.00000000  -22.08737030
     atom   48 type  2   force =    -0.00000275    0.00000274  -66.89962178
     atom   49 type  1   force =     0.00000000    0.00000000  158.13485850
     atom   50 type  1   force =    -0.00000476    0.00000000   52.96123972
     atom   51 type  1   force =     0.00000000   -0.00000476   52.96123972
     atom   52 type  1   force =    -0.00000310   -0.00000310  158.13485549
     atom   53 type  2   force =     0.00000000   -0.00000192   66.89962137
     atom   54 type  2   force =    -0.00000000   -0.00000000   22.08736256
     atom   55 type  2   force =    -0.00000192    0.00000000   66.89962137
     atom   56 type  2   force =    -0.00000121   -0.00000121   22.08736134
     atom   57 type  1   force =     0.00000000    0.00000000  -52.96125743
     atom   58 type  1   force =    -0.00000387    0.00000000 -158.13486053
     atom   59 type  1   force =     0.00000000   -0.00000387 -158.13486053
     atom   60 type  1   force =    -0.00000394   -0.00000394  -52.96125719
     atom   61 type  2   force =     0.00000000   -0.00000163  -22.08736868
     atom   62 type  2   force =     0.00000000    0.00000000  -66.89962306
     atom   63 type  2   force =    -0.00000163    0.00000000  -22.08736868
     atom   64 type  2   force =    -0.00000275   -0.00000275  -66.89962178
     The core correction contribution to forces
     atom    1 type  1   force =    -0.00000000   -0.00000000   -0.00566663
     atom    2 type  1   force =    -0.00000000   -0.00000000    0.00134129
     atom    3 type  1   force =    -0.00000000   -0.00000000    0.00134129
     atom    4 type  1   force =    -0.00000000   -0.00000000   -0.00567520
     atom    5 type  2   force =    -0.00000000   -0.00000000   -0.00069115
     atom    6 type  2   force =    -0.00000000   -0.00000000    0.00067578
     atom    7 type  2   force =    -0.00000000   -0.00000000   -0.00069115
     atom    8 type  2   force =    -0.00000000   -0.00000000    0.00067638
     atom    9 type  1   force =    -0.00000000   -0.00000000   -0.00134430
     atom   10 type  1   force =    -0.00000000   -0.00000000    0.00566631
     atom   11 type  1   force =    -0.00000000   -0.00000000    0.00566631
     atom   12 type  1   force =     0.00000000    0.00000000   -0.00133381
     atom   13 type  2   force =    -0.00000000   -0.00000000   -0.00067613
     atom   14 type  2   force =    -0.00000000   -0.00000000    0.00069148
     atom   15 type  2   force =    -0.00000000   -0.00000000   -0.00067613
     atom   16 type  2   force =    -0.00000000   -0.00000000    0.00069157
     atom   17 type  1   force =    -0.00000000   -0.00000000   -0.00566662
     atom   18 type  1   force =     0.00000001   -0.00000000    0.00134128
     atom   19 type  1   force =    -0.00000000    0.00000000    0.00134129
     atom   20 type  1   force =    -0.00000000    0.00000000   -0.00567520
     atom   21 type  2   force =    -0.00000000    0.00000000   -0.00069115
     atom   22 type  2   force =    -0.00000000   -0.00000000    0.00067579
     atom   23 type  2   force =    -0.00000000   -0.00000000   -0.00069115
     atom   24 type  2   force =    -0.00000000    0.00000000    0.00067638
     atom   25 type  1   force =    -0.00000000   -0.00000000   -0.00134428
     atom   26 type  1   force =     0.00000000   -0.00000000    0.00566628
     atom   27 type  1   force =    -0.00000000    0.00000000    0.00566631
     atom   28 type  1   force =     0.00000000   -0.00000000   -0.00133381
     atom   29 type  2   force =    -0.00000000    0.00000000   -0.00067613
     atom   30 type  2   force =    -0.00000000   -0.00000000    0.00069148
     atom   31 type  2   force =    -0.00000000   -0.00000000   -0.00067613
     atom   32 type  2   force =    -0.00000000    0.00000000    0.00069157
     atom   33 type  1   force =    -0.00000000   -0.00000000   -0.00566662
     atom   34 type  1   force =     0.00000000   -0.00000000    0.00134129
     atom   35 type  1   force =    -0.00000000    0.00000001    0.00134128
     atom   36 type  1   force =     0.00000000   -0.00000000   -0.00567520
     atom   37 type  2   force =    -0.00000000   -0.00000000   -0.00069115
     atom   38 type  2   force =    -0.00000000   -0.00000000    0.00067579
     atom   39 type  2   force =     0.00000000   -0.00000000   -0.00069115
     atom   40 type  2   force =     0.00000000   -0.00000000    0.00067638
     atom   41 type  1   force =    -0.00000000   -0.00000000   -0.00134428
     atom   42 type  1   force =     0.00000000   -0.00000000    0.00566631
     atom   43 type  1   force =    -0.00000000    0.00000000    0.00566628
     atom   44 type  1   force =    -0.00000000    0.00000000   -0.00133381
     atom   45 type  2   force =    -0.00000000   -0.00000000   -0.00067613
     atom   46 type  2   force =    -0.00000000   -0.00000000    0.00069148
     atom   47 type  2   force =     0.00000000   -0.00000000   -0.00067613
     atom   48 type  2   force =     0.00000000   -0.00000000    0.00069157
     atom   49 type  1   force =    -0.00000000   -0.00000000   -0.00566658
     atom   50 type  1   force =    -0.00000001   -0.00000000    0.00134128
     atom   51 type  1   force =    -0.00000000   -0.00000001    0.00134128
     atom   52 type  1   force =     0.00000000    0.00000000   -0.00567520
     atom   53 type  2   force =    -0.00000000    0.00000000   -0.00069115
     atom   54 type  2   force =    -0.00000000   -0.00000000    0.00067579
     atom   55 type  2   force =     0.00000000   -0.00000000   -0.00069115
     atom   56 type  2   force =     0.00000000    0.00000000    0.00067638
     atom   57 type  1   force =    -0.00000000   -0.00000000   -0.00134429
     atom   58 type  1   force =     0.00000000   -0.00000000    0.00566628
     atom   59 type  1   force =    -0.00000000    0.00000000    0.00566628
     atom   60 type  1   force =    -0.00000000   -0.00000000   -0.00133381
     atom   61 type  2   force =    -0.00000000    0.00000000   -0.00067613
     atom   62 type  2   force =    -0.00000000   -0.00000000    0.00069147
     atom   63 type  2   force =     0.00000000   -0.00000000   -0.00067613
     atom   64 type  2   force =     0.00000000    0.00000000    0.00069157
     The Hubbard contrib.    to forces
     atom    1 type  1   force =     0.00000000    0.00000000    0.00000000
     atom    2 type  1   force =     0.00000000    0.00000000    0.00000000
     atom    3 type  1   force =     0.00000000    0.00000000    0.00000000
     atom    4 type  1   force =     0.00000000    0.00000000    0.00000000
     atom    5 type  2   force =     0.00000000    0.00000000    0.00000000
     atom    6 type  2   force =     0.00000000    0.00000000    0.00000000
     atom    7 type  2   force =     0.00000000    0.00000000    0.00000000
     atom    8 type  2   force =     0.00000000    0.00000000    0.00000000
     atom    9 type  1   force =     0.00000000    0.00000000    0.00000000
     atom   10 type  1   force =     0.00000000    0.00000000    0.00000000
     atom   11 type  1   force =     0.00000000    0.00000000    0.00000000
     atom   12 type  1   force =     0.00000000    0.00000000    0.00000000
     atom   13 type  2   force =     0.00000000    0.00000000    0.00000000
     atom   14 type  2   force =     0.00000000    0.00000000    0.00000000
     atom   15 type  2   force =     0.00000000    0.00000000    0.00000000
     atom   16 type  2   force =     0.00000000    0.00000000    0.00000000
     atom   17 type  1   force =     0.00000000    0.00000000    0.00000000
     atom   18 type  1   force =     0.00000000    0.00000000    0.00000000
     atom   19 type  1   force =     0.00000000    0.00000000    0.00000000
     atom   20 type  1   force =     0.00000000    0.00000000    0.00000000
     atom   21 type  2   force =     0.00000000    0.00000000    0.00000000
     atom   22 type  2   force =     0.00000000    0.00000000    0.00000000
     atom   23 type  2   force =     0.00000000    0.00000000    0.00000000
     atom   24 type  2   force =     0.00000000    0.00000000    0.00000000
     atom   25 type  1   force =     0.00000000    0.00000000    0.00000000
     atom   26 type  1   force =     0.00000000    0.00000000    0.00000000
     atom   27 type  1   force =     0.00000000    0.00000000    0.00000000
     atom   28 type  1   force =     0.00000000    0.00000000    0.00000000
     atom   29 type  2   force =     0.00000000    0.00000000    0.00000000
     atom   30 type  2   force =     0.00000000    0.00000000    0.00000000
     atom   31 type  2   force =     0.00000000    0.00000000    0.00000000
     atom   32 type  2   force =     0.00000000    0.00000000    0.00000000
     atom   33 type  1   force =     0.00000000    0.00000000    0.00000000
     atom   34 type  1   force =     0.00000000    0.00000000    0.00000000
     atom   35 type  1   force =     0.00000000    0.00000000    0.00000000
     atom   36 type  1   force =     0.00000000    0.00000000    0.00000000
     atom   37 type  2   force =     0.00000000    0.00000000    0.00000000
     atom   38 type  2   force =     0.00000000    0.00000000    0.00000000
     atom   39 type  2   force =     0.00000000    0.00000000    0.00000000
     atom   40 type  2   force =     0.00000000    0.00000000    0.00000000
     atom   41 type  1   force =     0.00000000    0.00000000    0.00000000
     atom   42 type  1   force =     0.00000000    0.00000000    0.00000000
     atom   43 type  1   force =     0.00000000    0.00000000    0.00000000
     atom   44 type  1   force =     0.00000000    0.00000000    0.00000000
     atom   45 type  2   force =     0.00000000    0.00000000    0.00000000
     atom   46 type  2   force =     0.00000000    0.00000000    0.00000000
     atom   47 type  2   force =     0.00000000    0.00000000    0.00000000
     atom   48 type  2   force =     0.00000000    0.00000000    0.00000000
     atom   49 type  1   force =     0.00000000    0.00000000    0.00000000
     atom   50 type  1   force =     0.00000000    0.00000000    0.00000000
     atom   51 type  1   force =     0.00000000    0.00000000    0.00000000
     atom   52 type  1   force =     0.00000000    0.00000000    0.00000000
     atom   53 type  2   force =     0.00000000    0.00000000    0.00000000
     atom   54 type  2   force =     0.00000000    0.00000000    0.00000000
     atom   55 type  2   force =     0.00000000    0.00000000    0.00000000
     atom   56 type  2   force =     0.00000000    0.00000000    0.00000000
     atom   57 type  1   force =     0.00000000    0.00000000    0.00000000
     atom   58 type  1   force =     0.00000000    0.00000000    0.00000000
     atom   59 type  1   force =     0.00000000    0.00000000    0.00000000
     atom   60 type  1   force =     0.00000000    0.00000000    0.00000000
     atom   61 type  2   force =     0.00000000    0.00000000    0.00000000
     atom   62 type  2   force =     0.00000000    0.00000000    0.00000000
     atom   63 type  2   force =     0.00000000    0.00000000    0.00000000
     atom   64 type  2   force =     0.00000000    0.00000000    0.00000000
     The SCF correction term to forces
     atom    1 type  1   force =     0.00000000    0.00000000    0.00000000
     atom    2 type  1   force =     0.00000000    0.00000000    0.00000000
     atom    3 type  1   force =     0.00000000    0.00000000    0.00000000
     atom    4 type  1   force =     0.00000000    0.00000000    0.00000000
     atom    5 type  2   force =     0.00000000    0.00000000    0.00000000
     atom    6 type  2   force =     0.00000000    0.00000000    0.00000000
     atom    7 type  2   force =     0.00000000    0.00000000    0.00000000
     atom    8 type  2   force =     0.00000000    0.00000000    0.00000000
     atom    9 type  1   force =     0.00000000    0.00000000    0.00002675
     atom   10 type  1   force =    -0.00000489    0.00000000    0.00005258
     atom   11 type  1   force =     0.00000000   -0.00000489    0.00005258
     atom   12 type  1   force =    -0.00000358   -0.00000358    0.00002414
     atom   13 type  2   force =     0.00000000   -0.00000167    0.00001011
     atom   14 type  2   force =     0.00000000    0.00000000    0.00001947
     atom   15 type  2   force =    -0.00000167    0.00000000    0.00001011
     atom   16 type  2   force =    -0.00000288   -0.00000288    0.00001963
     atom   17 type  1   force =     0.00000000    0.00000000    0.00000000
     atom   18 type  1   force =     0.00000000    0.00000000    0.00000000
     atom   19 type  1   force =     0.00000000    0.00000000    0.00000000
     atom   20 type  1   force =     0.00000000    0.00000000    0.00000000
     atom   21 type  2   force =     0.00000000    0.00000000    0.00000000
     atom   22 type  2   force =     0.00000000    0.00000000    0.00000000
     atom   23 type  2   force =     0.00000000    0.00000000    0.00000000
     atom   24 type  2   force =     0.00000000    0.00000000    0.00000000
     atom   25 type  1   force =     0.00000000    0.00000000    0.00002202
     atom   26 type  1   force =    -0.00000341    0.00000000    0.00005352
     atom   27 type  1   force =     0.00000000    0.00000489    0.00005258
     atom   28 type  1   force =    -0.00000358    0.00000358    0.00002414
     atom   29 type  2   force =     0.00000000    0.00000167    0.00001011
     atom   30 type  2   force =     0.00000000    0.00000000    0.00002030
     atom   31 type  2   force =    -0.00000165    0.00000000    0.00000823
     atom   32 type  2   force =    -0.00000288    0.00000288    0.00001963
     atom   33 type  1   force =     0.00000000    0.00000000    0.00000000
     atom   34 type  1   force =     0.00000000    0.00000000    0.00000000
     atom   35 type  1   force =     0.00000000    0.00000000    0.00000000
     atom   36 type  1   force =     0.00000000    0.00000000    0.00000000
     atom   37 type  2   force =     0.00000000    0.00000000    0.00000000
     atom   38 type  2   force =     0.00000000    0.00000000    0.00000000
     atom   39 type  2   force =     0.00000000    0.00000000    0.00000000
     atom   40 type  2   force =     0.00000000    0.00000000    0.00000000
     atom   41 type  1   force =     0.00000000    0.00000000    0.00002202
     atom   42 type  1   force =     0.00000489    0.00000000    0.00005258
     atom   43 type  1   force =     0.00000000   -0.00000341    0.00005352
     atom   44 type  1   force =     0.00000358   -0.00000358    0.00002414
     atom   45 type  2   force =     0.00000000   -0.00000165    0.00000823
     atom   46 type  2   force =     0.00000000    0.00000000    0.00002030
     atom   47 type  2   force =     0.00000167    0.00000000    0.00001011
     atom   48 type  2   force =     0.00000288   -0.00000288    0.00001963
     atom   49 type  1   force =     0.00000000    0.00000000    0.00000000
     atom   50 type  1   force =     0.00000000    0.00000000    0.00000000
     atom   51 type  1   force =     0.00000000    0.00000000    0.00000000
     atom   52 type  1   force =     0.00000000    0.00000000    0.00000000
     atom   53 type  2   force =     0.00000000    0.00000000    0.00000000
     atom   54 type  2   force =     0.00000000    0.00000000    0.00000000
     atom   55 type  2   force =     0.00000000    0.00000000    0.00000000
     atom   56 type  2   force =     0.00000000    0.00000000    0.00000000
     atom   57 type  1   force =     0.00000000    0.00000000    0.00002262
     atom   58 type  1   force =     0.00000341    0.00000000    0.00005352
     atom   59 type  1   force =     0.00000000    0.00000341    0.00005352
     atom   60 type  1   force =     0.00000358    0.00000358    0.00002414
     atom   61 type  2   force =     0.00000000    0.00000165    0.00000823
     atom   62 type  2   force =     0.00000000    0.00000000    0.00002068
     atom   63 type  2   force =     0.00000165    0.00000000    0.00000823
     atom   64 type  2   force =     0.00000288    0.00000288    0.00001963

     DFT-D3 dispersion contribution to forces:
     atom    1 type  1   force =    -0.00000000   -0.00000000    0.00485060
     atom    2 type  1   force =     0.00000000   -0.00000000    0.00300330
     atom    3 type  1   force =    -0.00000000    0.00000000    0.00300330
[...]
     atom   33 type  1   force =     0.00000000    0.00000000    0.00000000
     atom   34 type  1   force =     0.00000000    0.00000000    0.00000000
     atom   35 type  1   force =     0.00000000    0.00000000    0.00000000
     atom   36 type  1   force =     0.00000000    0.00000000    0.00000000
     atom   37 type  2   force =     0.00000000    0.00000000    0.00000000
     atom   38 type  2   force =     0.00000000    0.00000000    0.00000000
     atom   39 type  2   force =     0.00000000    0.00000000    0.00000000
     atom   40 type  2   force =     0.00000000    0.00000000    0.00000000
     atom   41 type  1   force =     0.00000000    0.00000000    0.00000000
     atom   42 type  1   force =     0.00000000    0.00000000    0.00000000
     atom   43 type  1   force =     0.00000000    0.00000000    0.00000000
     atom   44 type  1   force =     0.00000000    0.00000000    0.00000000
     atom   45 type  2   force =     0.00000000    0.00000000    0.00000000
     atom   46 type  2   force =     0.00000000    0.00000000    0.00000000
     atom   47 type  2   force =     0.00000000    0.00000000    0.00000000
     atom   48 type  2   force =     0.00000000    0.00000000    0.00000000
     atom   49 type  1   force =     0.00000000    0.00000000    0.00000000
     atom   50 type  1   force =     0.00000000    0.00000000    0.00000000
     atom   51 type  1   force =     0.00000000    0.00000000    0.00000000
     atom   52 type  1   force =     0.00000000    0.00000000    0.00000000
     atom   53 type  2   force =     0.00000000    0.00000000    0.00000000
     atom   54 type  2   force =     0.00000000    0.00000000    0.00000000
     atom   55 type  2   force =     0.00000000    0.00000000    0.00000000
     atom   56 type  2   force =     0.00000000    0.00000000    0.00000000
     atom   57 type  1   force =     0.00000000    0.00000000    0.00000000
     atom   58 type  1   force =     0.00000000    0.00000000    0.00000000
     atom   59 type  1   force =     0.00000000    0.00000000    0.00000000
     atom   60 type  1   force =     0.00000000    0.00000000    0.00000000
     atom   61 type  2   force =     0.00000000    0.00000000    0.00000000
     atom   62 type  2   force =     0.00000000    0.00000000    0.00000000
     atom   63 type  2   force =     0.00000000    0.00000000    0.00000000
     atom   64 type  2   force =     0.00000000    0.00000000    0.00000000
     The SCF correction term to forces
     atom    1 type  1   force =     0.00000000    0.00000000    0.00000000
     atom    2 type  1   force =     0.00000000    0.00000000    0.00000000
     atom    3 type  1   force =     0.00000000    0.00000000    0.00000000
     atom    4 type  1   force =     0.00000000    0.00000000    0.00000000
     atom    5 type  2   force =     0.00000000    0.00000000    0.00000000
     atom    6 type  2   force =     0.00000000    0.00000000    0.00000000
     atom    7 type  2   force =     0.00000000    0.00000000    0.00000000
     atom    8 type  2   force =     0.00000000    0.00000000    0.00000000
     atom    9 type  1   force =     0.00000000    0.00000000   -0.00000420
     atom   10 type  1   force =     0.00000003   -0.00000000   -0.00000391
     atom   11 type  1   force =     0.00000000    0.00000003   -0.00000391
     atom   12 type  1   force =     0.00000002    0.00000002   -0.00000418
     atom   13 type  2   force =     0.00000000    0.00000004   -0.00000162
     atom   14 type  2   force =     0.00000000    0.00000000   -0.00000157
     atom   15 type  2   force =     0.00000004    0.00000000   -0.00000162
     atom   16 type  2   force =    -0.00000000   -0.00000000   -0.00000151
     atom   17 type  1   force =     0.00000000    0.00000000    0.00000000
     atom   18 type  1   force =     0.00000000    0.00000000    0.00000000
     atom   19 type  1   force =     0.00000000    0.00000000    0.00000000
     atom   20 type  1   force =     0.00000000    0.00000000    0.00000000
     atom   21 type  2   force =     0.00000000    0.00000000    0.00000000
     atom   22 type  2   force =     0.00000000    0.00000000    0.00000000
     atom   23 type  2   force =     0.00000000    0.00000000    0.00000000
     atom   24 type  2   force =     0.00000000    0.00000000    0.00000000
     atom   25 type  1   force =     0.00000000    0.00000000   -0.00000420
     atom   26 type  1   force =    -0.00000004    0.00000000   -0.00000393
     atom   27 type  1   force =     0.00000000   -0.00000003   -0.00000391
     atom   28 type  1   force =     0.00000002   -0.00000002   -0.00000418
     atom   29 type  2   force =     0.00000000   -0.00000004   -0.00000162
     atom   30 type  2   force =     0.00000000    0.00000000   -0.00000160
     atom   31 type  2   force =    -0.00000004    0.00000000   -0.00000164
     atom   32 type  2   force =    -0.00000000    0.00000000   -0.00000151
     atom   33 type  1   force =     0.00000000    0.00000000    0.00000000
     atom   34 type  1   force =     0.00000000    0.00000000    0.00000000
     atom   35 type  1   force =     0.00000000    0.00000000    0.00000000
     atom   36 type  1   force =     0.00000000    0.00000000    0.00000000
     atom   37 type  2   force =     0.00000000    0.00000000    0.00000000
     atom   38 type  2   force =     0.00000000    0.00000000    0.00000000
     atom   39 type  2   force =     0.00000000    0.00000000    0.00000000
     atom   40 type  2   force =     0.00000000    0.00000000    0.00000000
     atom   41 type  1   force =     0.00000000    0.00000000   -0.00000420
     atom   42 type  1   force =    -0.00000003   -0.00000000   -0.00000391
     atom   43 type  1   force =     0.00000000   -0.00000004   -0.00000393
     atom   44 type  1   force =    -0.00000002    0.00000002   -0.00000418
     atom   45 type  2   force =     0.00000000   -0.00000004   -0.00000164
     atom   46 type  2   force =     0.00000000    0.00000000   -0.00000160
     atom   47 type  2   force =    -0.00000004    0.00000000   -0.00000162
     atom   48 type  2   force =     0.00000000   -0.00000000   -0.00000151
     atom   49 type  1   force =     0.00000000    0.00000000    0.00000000
     atom   50 type  1   force =     0.00000000    0.00000000    0.00000000
     atom   51 type  1   force =     0.00000000    0.00000000    0.00000000
     atom   52 type  1   force =     0.00000000    0.00000000    0.00000000
     atom   53 type  2   force =     0.00000000    0.00000000    0.00000000
     atom   54 type  2   force =     0.00000000    0.00000000    0.00000000
     atom   55 type  2   force =     0.00000000    0.00000000    0.00000000
     atom   56 type  2   force =     0.00000000    0.00000000    0.00000000
     atom   57 type  1   force =     0.00000000    0.00000000   -0.00000429
     atom   58 type  1   force =     0.00000004    0.00000000   -0.00000393
     atom   59 type  1   force =    -0.00000000    0.00000004   -0.00000393
     atom   60 type  1   force =    -0.00000002   -0.00000002   -0.00000418
     atom   61 type  2   force =     0.00000000    0.00000004   -0.00000164
     atom   62 type  2   force =     0.00000000    0.00000000   -0.00000157
     atom   63 type  2   force =     0.00000004    0.00000000   -0.00000164
     atom   64 type  2   force =     0.00000000    0.00000000   -0.00000151

     DFT-D3 dispersion contribution to forces:
     atom    1 type  1   force =    -0.00000000   -0.00000000    0.00487879
     atom    2 type  1   force =     0.00000000   -0.00000000    0.00275322
     atom    3 type  1   force =    -0.00000000    0.00000000    0.00275322
     atom    4 type  1   force =     0.00000000    0.00000000    0.00487882
     atom    5 type  2   force =     0.00000000    0.00000000    0.00167747
     atom    6 type  2   force =     0.00000000    0.00000000    0.00075471
     atom    7 type  2   force =     0.00000000    0.00000000    0.00167747
     atom    8 type  2   force =    -0.00000000   -0.00000000    0.00075470
     atom    9 type  1   force =    -0.00000000   -0.00000000   -0.00266152
     atom   10 type  1   force =    -0.00000000   -0.00000000   -0.00463436
     atom   11 type  1   force =    -0.00000000   -0.00000000   -0.00463436
     atom   12 type  1   force =    -0.00000000   -0.00000000   -0.00266156
     atom   13 type  2   force =     0.00000000   -0.00000000   -0.00101192
     atom   14 type  2   force =     0.00000000    0.00000000   -0.00175634
     atom   15 type  2   force =    -0.00000000    0.00000000   -0.00101192
     atom   16 type  2   force =     0.00000000    0.00000000   -0.00175641
     atom   17 type  1   force =    -0.00000000   -0.00000000    0.00487879
     atom   18 type  1   force =     0.00000000   -0.00000000    0.00275322
     atom   19 type  1   force =    -0.00000000   -0.00000000    0.00275322
     atom   20 type  1   force =     0.00000000   -0.00000000    0.00487882
     atom   21 type  2   force =     0.00000000   -0.00000000    0.00167747
     atom   22 type  2   force =     0.00000000    0.00000000    0.00075471
     atom   23 type  2   force =     0.00000000    0.00000000    0.00167747
     atom   24 type  2   force =    -0.00000000    0.00000000    0.00075470
     atom   25 type  1   force =    -0.00000000   -0.00000000   -0.00266152
     atom   26 type  1   force =     0.00000000   -0.00000000   -0.00463436
     atom   27 type  1   force =    -0.00000000    0.00000000   -0.00463436
     atom   28 type  1   force =    -0.00000000    0.00000000   -0.00266156
     atom   29 type  2   force =     0.00000000    0.00000000   -0.00101192
     atom   30 type  2   force =     0.00000000    0.00000000   -0.00175634
     atom   31 type  2   force =     0.00000000    0.00000000   -0.00101192
     atom   32 type  2   force =     0.00000000   -0.00000000   -0.00175641
     atom   33 type  1   force =    -0.00000000   -0.00000000    0.00487879
     atom   34 type  1   force =    -0.00000000   -0.00000000    0.00275322
     atom   35 type  1   force =    -0.00000000    0.00000000    0.00275322
     atom   36 type  1   force =    -0.00000000    0.00000000    0.00487882
     atom   37 type  2   force =     0.00000000    0.00000000    0.00167747
     atom   38 type  2   force =     0.00000000    0.00000000    0.00075471
     atom   39 type  2   force =    -0.00000000    0.00000000    0.00167747
     atom   40 type  2   force =     0.00000000   -0.00000000    0.00075470
     atom   41 type  1   force =    -0.00000000   -0.00000000   -0.00266152
     atom   42 type  1   force =     0.00000000   -0.00000000   -0.00463436
     atom   43 type  1   force =    -0.00000000    0.00000000   -0.00463436
     atom   44 type  1   force =     0.00000000   -0.00000000   -0.00266156
     atom   45 type  2   force =     0.00000000    0.00000000   -0.00101192
     atom   46 type  2   force =     0.00000000    0.00000000   -0.00175634
     atom   47 type  2   force =     0.00000000    0.00000000   -0.00101192
     atom   48 type  2   force =    -0.00000000    0.00000000   -0.00175641
     atom   49 type  1   force =    -0.00000000   -0.00000000    0.00487879
     atom   50 type  1   force =    -0.00000000   -0.00000000    0.00275322
     atom   51 type  1   force =    -0.00000000   -0.00000000    0.00275322
     atom   52 type  1   force =    -0.00000000   -0.00000000    0.00487882
     atom   53 type  2   force =     0.00000000   -0.00000000    0.00167747
     atom   54 type  2   force =     0.00000000    0.00000000    0.00075471
     atom   55 type  2   force =    -0.00000000    0.00000000    0.00167747
     atom   56 type  2   force =     0.00000000    0.00000000    0.00075470
     atom   57 type  1   force =    -0.00000000   -0.00000000   -0.00266152
     atom   58 type  1   force =    -0.00000000   -0.00000000   -0.00463436
     atom   59 type  1   force =    -0.00000000   -0.00000000   -0.00463436
     atom   60 type  1   force =     0.00000000    0.00000000   -0.00266156
     atom   61 type  2   force =     0.00000000   -0.00000000   -0.00101192
     atom   62 type  2   force =     0.00000000    0.00000000   -0.00175634
     atom   63 type  2   force =    -0.00000000    0.00000000   -0.00101192
     atom   64 type  2   force =    -0.00000000   -0.00000000   -0.00175641

     Total force =     0.000881     Total SCF correction =     0.000017
     Energy error            =      2.4E-05 Ry
     Gradient error          =      2.9E-04 Ry/Bohr

     bfgs converged in  13 scf cycles and  12 bfgs steps
     (criteria: energy <  1.0E-04 Ry, force <  7.3E-04 Ry/Bohr)

     End of BFGS Geometry Optimization

     Final energy             =   -4468.6356954103 Ry

     File ./Tr_metals/TiN/TiN.bfgs deleted, as requested
Begin final coordinates

ATOMIC_POSITIONS (angstrom)
Ti            0.0000000000        0.0000000000       10.0000000000    0   0   0
Ti            2.1405327042        0.0000000000       12.1405327042    0   0   0
Ti            0.0000000000        2.1405327042       12.1405327042    0   0   0
Ti            2.1405327042        2.1405327042       10.0000000000    0   0   0
N             0.0000000000        2.1405327042       10.0000000000    0   0   0
N             0.0000000000        0.0000000000       12.1405327042    0   0   0
N             2.1405327042        0.0000000000       10.0000000000    0   0   0
N             2.1405327042        2.1405327042       12.1405327042    0   0   0
Ti            0.0000000000        0.0000000000       14.2121012194
Ti            2.1405327494        0.0000000000       16.2180296053
Ti            0.0000000000        2.1405327494       16.2180296053
Ti            2.1405327359        2.1405327359       14.2121084808
N             0.0000000000        2.1405327078       14.2456314152
N             0.0000000000        0.0000000000       16.3858059756
N             2.1405327078        0.0000000000       14.2456314152
N             2.1405327181        2.1405327181       16.3858331559
Ti            0.0000000000        4.2810654080       10.0000000000    0   0   0
Ti            2.1405327042        4.2810654080       12.1405327042    0   0   0
Ti            0.0000000000        6.4215981122       12.1405327042    0   0   0
Ti            2.1405327042        6.4215981122       10.0000000000    0   0   0
N             0.0000000000        6.4215981122       10.0000000000    0   0   0
N             0.0000000000        4.2810654080       12.1405327042    0   0   0
N             2.1405327042        4.2810654080       10.0000000000    0   0   0
N             2.1405327042        6.4215981122       12.1405327042    0   0   0
Ti            0.0000000000        4.2810654080       14.2121011786
Ti            2.1405326939        4.2810654080       16.2180295944
Ti            0.0000000000        6.4215980670       16.2180296053
Ti            2.1405327359        6.4215980805       14.2121084808
N             0.0000000000        6.4215981086       14.2456314152
N             0.0000000000        4.2810654080       16.3858059984
N             2.1405327049        4.2810654080       14.2456313938
N             2.1405327181        6.4215980983       16.3858331559
Ti            4.2810654080        0.0000000000       10.0000000000    0   0   0
Ti            6.4215981122        0.0000000000       12.1405327042    0   0   0
Ti            4.2810654080        2.1405327042       12.1405327042    0   0   0
Ti            6.4215981122        2.1405327042       10.0000000000    0   0   0
N             4.2810654080        2.1405327042       10.0000000000    0   0   0
N             4.2810654080        0.0000000000       12.1405327042    0   0   0
N             6.4215981122        0.0000000000       10.0000000000    0   0   0
N             6.4215981122        2.1405327042       12.1405327042    0   0   0
Ti            4.2810654080        0.0000000000       14.2121011786
Ti            6.4215980670        0.0000000000       16.2180296053
Ti            4.2810654080        2.1405326939       16.2180295944
Ti            6.4215980805        2.1405327359       14.2121084808
N             4.2810654080        2.1405327049       14.2456313938
N             4.2810654080        0.0000000000       16.3858059984
N             6.4215981086        0.0000000000       14.2456314152
N             6.4215980983        2.1405327181       16.3858331559
Ti            4.2810654080        4.2810654080       10.0000000000    0   0   0
Ti            6.4215981122        4.2810654080       12.1405327042    0   0   0
Ti            4.2810654080        6.4215981122       12.1405327042    0   0   0
Ti            6.4215981122        6.4215981122       10.0000000000    0   0   0
N             4.2810654080        6.4215981122       10.0000000000    0   0   0
N             4.2810654080        4.2810654080       12.1405327042    0   0   0
N             6.4215981122        4.2810654080       10.0000000000    0   0   0
N             6.4215981122        6.4215981122       12.1405327042    0   0   0
Ti            4.2810654080        4.2810654080       14.2121011134
Ti            6.4215981225        4.2810654080       16.2180295944
Ti            4.2810654080        6.4215981225       16.2180295944
Ti            6.4215980805        6.4215980805       14.2121084808
N             4.2810654080        6.4215981115       14.2456313938
N             4.2810654080        4.2810654080       16.3858059702
N             6.4215981115        4.2810654080       14.2456313938
N             6.4215980983        6.4215980983       16.3858331559
End final coordinates



     Writing all to output data dir ./Tr_metals/TiN/TiN.save/
 
     init_run     :      6.70s CPU      7.09s WALL (       1 calls)
     electrons    :   6682.70s CPU   7079.34s WALL (      13 calls)
     update_pot   :     20.16s CPU     20.47s WALL (      12 calls)
     forces       :     46.45s CPU     49.79s WALL (      13 calls)
     force_dftd3  :      6.46s CPU      6.70s WALL (      13 calls)

     Called by init_run:
     wfcinit      :      2.55s CPU      2.70s WALL (       1 calls)
     potinit      :      1.66s CPU      1.70s WALL (       1 calls)
     hinit0       :      1.77s CPU      1.80s WALL (       1 calls)

     Called by electrons:
     c_bands      :   5366.75s CPU   5517.26s WALL (     921 calls)
     sum_band     :    976.71s CPU   1103.67s WALL (     921 calls)
     v_of_rho     :    127.35s CPU    135.22s WALL (     934 calls)
     newd         :    162.62s CPU    264.90s WALL (     934 calls)
     mix_rho      :     36.81s CPU     40.21s WALL (     921 calls)
     energy_dftd3 :      1.63s CPU      1.64s WALL (      13 calls)

     Called by c_bands:
     init_us_2    :     33.88s CPU     34.69s WALL (    1843 calls)
     init_us_2:cp :     33.86s CPU     34.68s WALL (    1843 calls)
     cegterg      :   4461.01s CPU   4603.64s WALL (     921 calls)

     Called by *egterg:
     cdiaghg      :    272.48s CPU    278.61s WALL (    5245 calls)
     h_psi        :   2448.86s CPU   2500.36s WALL (    5258 calls)
     s_psi        :    417.61s CPU    420.72s WALL (    5258 calls)
     g_psi        :      6.50s CPU      6.57s WALL (    4336 calls)

     Called by h_psi:
     h_psi:calbec :    399.87s CPU    403.83s WALL (    5258 calls)
     vloc_psi     :   1621.57s CPU   1642.41s WALL (    5258 calls)
     add_vuspsi   :    417.22s CPU    420.91s WALL (    5258 calls)

     General routines
     calbec       :    584.78s CPU    590.27s WALL (    6231 calls)
     fft          :     99.01s CPU    107.90s WALL (   12271 calls)
     ffts         :      6.81s CPU      7.10s WALL (    1855 calls)
     fftw         :   1505.00s CPU   1523.56s WALL ( 1578244 calls)
     interpolate  :     11.20s CPU     12.18s WALL (     934 calls)
 
     Parallel routines
 
     PWSCF        :      1h52m CPU      1h59m WALL

 
   This run was terminated on:  15:16:31   4Apr2024            

=------------------------------------------------------------------------------=
   JOB DONE.
=------------------------------------------------------------------------------=
